# vtk DataFile Version 3.0
LucasCarvalhoTCC Results
ASCII

DATASET POLYDATA
FIELD FieldData 1
TIME 1 1 double
2.4000000000000004

POINTS 494 float
0.0 0.0 0.0
8.0 0.0 0.0
8.0 1.0 0.0
0.0 1.0 0.0
4.0 0.0 0.0
4.0 1.0 0.0
4.0 0.35 0.0
4.0 0.65 0.0
0.2010296266416496 1.0 0.0
0.3986915135488555 1.0 0.0
0.5930420631591132 1.0 0.0
0.7841367769318693 1.0 0.0
0.9720301907499852 1.0 0.0
1.156775924166146 1.0 0.0
1.33842670621592 1.0 0.0
1.517034389070868 1.0 0.0
1.69264994674003 1.0 0.0
1.865323550794866 1.0 0.0
2.035104414722059 1.0 0.0
2.202040983487818 1.0 0.0
2.366180993436638 1.0 0.0
2.527571282866703 1.0 0.0
2.686257831390245 1.0 0.0
2.842286022819771 1.0 0.0
2.995700353514032 1.0 0.0
3.146544637914273 1.0 0.0
3.294861880721452 1.0 0.0
3.440694398353104 1.0 0.0
3.58408394609007 1.0 0.0
3.725071294102791 1.0 0.0
3.863696788294668 1.0 0.0
4.136303211705004 1.0 0.0
4.274928705896546 1.0 0.0
4.415916053908917 1.0 0.0
4.55930560164552 1.0 0.0
4.7051381192768 1.0 0.0
4.853455362083593 1.0 0.0
5.004299646483437 1.0 0.0
5.157713977177285 1.0 0.0
5.313742168606385 1.0 0.0
5.472428717129489 1.0 0.0
5.6338190065591 1.0 0.0
5.797959016507455 1.0 0.0
5.96489558527273 1.0 0.0
6.134676449200184 1.0 0.0
6.307350053255487 1.0 0.0
6.482965610925135 1.0 0.0
6.661573293780584 1.0 0.0
6.843224075830887 1.0 0.0
7.027969809247587 1.0 0.0
7.215863223066262 1.0 0.0
7.4069579368396 1.0 0.0
7.601308486450315 1.0 0.0
7.798970373357896 1.0 0.0
8.0 0.7999999999999996 0.0
8.0 0.6000000000013874 0.0
8.0 0.4000000000016649 0.0
8.0 0.2000000000008324 0.0
7.798970373357898 0.0 0.0
7.601308486450317 0.0 0.0
7.406957936839601 0.0 0.0
7.215863223066265 0.0 0.0
7.02796980924759 0.0 0.0
6.843224075830888 0.0 0.0
6.661573293780592 0.0 0.0
6.482965610925139 0.0 0.0
6.307350053255492 0.0 0.0
6.134676449200188 0.0 0.0
5.964895585272735 0.0 0.0
5.797959016507459 0.0 0.0
5.633819006559103 0.0 0.0
5.472428717129493 0.0 0.0
5.313742168606389 0.0 0.0
5.157713977177288 0.0 0.0
5.004299646483441 0.0 0.0
4.853455362083597 0.0 0.0
4.705138119276803 0.0 0.0
4.559305601645523 0.0 0.0
4.415916053908919 0.0 0.0
4.274928705896549 0.0 0.0
4.136303211705007 0.0 0.0
3.863696788294383 0.0 0.0
3.725071294102209 0.0 0.0
3.584083946089184 0.0 0.0
3.440694398352564 0.0 0.0
3.29486188072223 0.0 0.0
3.146544637916415 0.0 0.0
2.995700353517581 0.0 0.0
2.842286022824779 0.0 0.0
2.68625783139676 0.0 0.0
2.527571282874774 0.0 0.0
2.366180993446318 0.0 0.0
2.202040983499156 0.0 0.0
2.035104414735112 0.0 0.0
1.865323550807426 0.0 0.0
1.692649946751479 0.0 0.0
1.517034389081164 0.0 0.0
1.338426706225015 0.0 0.0
1.156775924174005 0.0 0.0
0.9720301907565596 0.0 0.0
0.784136776937109 0.0 0.0
0.5930420631629705 0.0 0.0
0.3986915135514271 0.0 0.0
0.2010296266429896 0.0 0.0
0.0 0.199999999999558 0.0
0.0 0.3999999999989746 0.0
0.0 0.5999999999989464 0.0
0.0 0.7999999999994731 0.0
4.065082561150232 0.3648546699507293 0.0
4.117274722996153 0.4064765305061043 0.0
4.146239186965635 0.4666218605127571 0.0
4.146239186588658 0.5333781411388893 0.0
4.117274722147235 0.5935234705584039 0.0
4.065082560620447 0.6351453303044018 0.0
3.934917439190226 0.6351453302132268 0.0
3.882725277520537 0.5935234701418048 0.0
3.853760813071839 0.5333781396514286 0.0
3.853760813263242 0.4666218595099774 0.0
3.882725277782338 0.4064765295299076 0.0
3.934917439246251 0.3648546697597932 0.0
3.348071016817302 0.5037366844559412 0.0
4.65817771841185 0.4813089492125461 0.0
5.148432135339639 0.5000000000000013 0.0
2.851567863014233 0.5000000000000465 0.0
4.406326506211093 0.3072680842959042 0.0
3.575604791543614 0.6706702532911111 0.0
4.424395205595821 0.6706702556565258 0.0
3.593673497058965 0.3072680820819204 0.0
5.648652107845511 0.5000000000000006 0.0
2.351347890458042 0.4999999999998563 0.0
1.851146954963573 0.4999999999998219 0.0
6.148853043290459 0.4999999999999989 0.0
6.65089532386231 0.5241211434250735 0.0
1.349104674975677 0.4758788558671475 0.0
7.150713697794147 0.4858064203922342 0.0
0.8492863006035025 0.4858064203396458 0.0
4.216343713145164 0.2287135668575249 0.0
3.7836562881134 0.7712864338025908 0.0
4.346988371127422 0.5000000019594898 0.0
4.213775907987267 0.7756803165215952 0.0
3.653011628408684 0.4999999990051173 0.0
3.786224091202296 0.224319683220954 0.0
7.572712389010231 0.5763628491757339 0.0
0.4272876103144935 0.5763628498169726 0.0
4.881741322202974 0.3185523670790996 0.0
3.118258676783759 0.6814476337404539 0.0
3.126854924363118 0.2792890251323842 0.0
4.873145074373641 0.7207109754187309 0.0
5.398381996912613 0.291094588046412 0.0
5.396092528392672 0.7230702977293901 0.0
2.603907471650227 0.7230702981371074 0.0
2.601618001742297 0.2910945873520305 0.0
4.065645388412852 0.1903894420877926 0.0
3.934354612281609 0.8096105573695707 0.0
4.268393145079946 0.6292513280674802 0.0
3.731606853978594 0.3707486723017213 0.0
4.265062587797852 0.3723525870906427 0.0
3.734937412407246 0.6276474138958879 0.0
5.89991820844496 0.720584760457478 0.0
5.899661142431216 0.2940789491313893 0.0
2.100338856207466 0.7059210507243335 0.0
2.100081790085733 0.2794152396968363 0.0
4.648216390708278 0.2460745758417431 0.0
3.350865525112209 0.7519279174007294 0.0
3.351783614314077 0.2460745727859678 0.0
4.649134469923633 0.7519279206208029 0.0
6.386000070083336 0.2800687217561524 0.0
6.399946740387701 0.7091877900019353 0.0
1.613999929083956 0.7199312783619409 0.0
1.600053258667474 0.2908122092889953 0.0
1.099018086220021 0.3101534564461602 0.0
1.099018086220183 0.6898465435530818 0.0
6.900981912171285 0.3101534566801202 0.0
6.900981912171287 0.689846543319878 0.0
3.934891793257755 0.2336799984692873 0.0
4.065108206439434 0.7663200008196746 0.0
5.133077706310633 0.254681732561614 0.0
5.131620328745691 0.7509194919064351 0.0
2.866922291796803 0.7453182673725732 0.0
2.868379670398546 0.2490805081265555 0.0
0.5973224633027379 0.3123440263675117 0.0
7.402677535116692 0.3123440263206204 0.0
7.70928508668797 0.2984218335093966 0.0
0.2907149122204558 0.2984218350042115 0.0
2.359042531710287 0.2526358364218651 0.0
2.362552667743482 0.7498876177132479 0.0
5.640957467742433 0.2526358368965552 0.0
5.637447332034727 0.7498876177447886 0.0
7.330771635020911 0.7204300868765696 0.0
0.6692283641678903 0.7204300870263377 0.0
6.141991504218947 0.7500064293114952 0.0
6.143214654121697 0.2541610692540839 0.0
1.858008494097047 0.2499935706645152 0.0
1.856785344746094 0.7458389307817799 0.0
1.360037479834015 0.7503851535261052 0.0
1.363297687800482 0.2332108063209677 0.0
6.636702311691573 0.7667891933666813 0.0
6.639962519949044 0.2496148464378299 0.0
7.14328150074831 0.2292696686424185 0.0
0.8567184978980538 0.2292696684503961 0.0
4.845173759433459 0.5000000012080886 0.0
3.15482623877425 0.4999999993865263 0.0
3.514470413944982 0.5755907957035395 0.0
4.485529584365944 0.5755907996488695 0.0
4.350214515329574 0.8947484376274254 0.0
3.64978548377064 0.1052515623441257 0.0
4.356280753270322 0.1397878825788729 0.0
3.643719248073251 0.8602121180766233 0.0
4.157657982820168 0.3023031440803671 0.0
3.842342017851872 0.6976968563131654 0.0
4.149794964153143 0.6947625877680722 0.0
3.850205035403508 0.3052374120341299 0.0
4.252863769441745 0.5000000013253333 0.0
3.747136230269581 0.4999999993774377 0.0
2.66150837620265 0.4835883053501762 0.0
5.338491622258749 0.4835883052760253 0.0
7.732076714471282 0.7613785341653052 0.0
0.267923285219987 0.7613785345749642 0.0
3.482582425594127 0.3988584940714734 0.0
4.517417574829351 0.3988584973195787 0.0
7.120961454429095 0.7969630876933931 0.0
0.8790385446795201 0.7969630878928393 0.0
4.524178509919695 0.1937066442020419 0.0
3.472973035782958 0.803602443762734 0.0
4.527026959328886 0.8036024455277256 0.0
3.475821495314308 0.1937066425220846 0.0
5.834485749168302 0.4775259269822466 0.0
2.16551424934095 0.5224740729963462 0.0
4.803832126993392 0.8343163881584211 0.0
3.196167871756218 0.1656836120733276 0.0
3.196167870279283 0.834316388182051 0.0
4.803832130306974 0.1656836112805605 0.0
1.646902821176459 0.5088844228822333 0.0
6.35309717778631 0.4911155766888507 0.0
4.128745436683365 0.8608937921704661 0.0
3.871254562700506 0.1391062074145501 0.0
7.783519314041498 0.4824599318584197 0.0
0.2164806854160975 0.4824599323519634 0.0
3.981228286637499 0.1341601386487245 0.0
4.018771713398118 0.8658398609794804 0.0
4.757705393330306 0.6277793253200102 0.0
3.245404476813698 0.3720431195654205 0.0
3.262406961538709 0.609092082228193 0.0
4.738552632749474 0.3854106153034425 0.0
4.980576921401999 0.1828043249223437 0.0
3.019423077460087 0.8171956749482756 0.0
4.975386875116307 0.8288560892267683 0.0
3.024613123995747 0.1711439108946455 0.0
7.537862127958827 0.7914398748884439 0.0
0.46213787149577 0.7914398749623154 0.0
4.150965283491015 0.1232311208167031 0.0
3.849034718225983 0.8767688792466098 0.0
0.6330166515036239 0.5212993800799176 0.0
7.366983347335347 0.5212993798709434 0.0
5.001451172914062 0.4591396125040952 0.0
2.998548825585332 0.5408603877155073 0.0
5.250532135494552 0.1623854812497458 0.0
5.24999687257574 0.8404382486850067 0.0
2.749794930508214 0.8396380739052673 0.0
2.749676059914328 0.161585306286623 0.0
1.150631951549359 0.5017906253149568 0.0
6.85747267660715 0.5137706215776152 0.0
2.938770240933895 0.3859183074771494 0.0
5.061229757952985 0.6140816927005173 0.0
5.521883200863776 0.8371838481144578 0.0
5.520780843451154 0.1567733764659754 0.0
2.479219155991939 0.1567733759623464 0.0
2.478116798894765 0.8371838481096507 0.0
2.208224060227917 0.1725929992863016 0.0
2.214655190115911 0.821187355218689 0.0
5.791775938918927 0.8274070011383262 0.0
5.785558009721889 0.1789659155514431 0.0
5.243140500145841 0.3651007420679131 0.0
5.247758683472709 0.6318228659349833 0.0
2.748336099792684 0.6332079670712092 0.0
2.766145970608876 0.3583112578457802 0.0
2.500794992947401 0.4517155340697119 0.0
5.499205006433885 0.4517155344186723 0.0
3.472119223331378 0.69283875816516 0.0
4.527880773131323 0.6928387614752662 0.0
2.445947440949104 0.6396216022327238 0.0
5.554052558509333 0.6396216019605415 0.0
[...]
POINT_DATA 494

VECTORS Velocity float
0.0000000000000000 0.0000000000000000 0.0
0.8198762936451153 -0.1381273287608864 0.0
0.0000000000000000 0.0000000000000000 0.0
0.0000000000000000 0.0000000000000000 0.0
0.0000000000000000 0.0000000000000000 0.0
0.0000000000000000 0.0000000000000000 0.0
0.0000000000000000 0.0000000000000000 0.0
0.0000000000000000 0.0000000000000000 0.0
0.0000000000000000 0.0000000000000000 0.0
0.0000000000000000 0.0000000000000000 0.0
0.0000000000000000 0.0000000000000000 0.0
0.0000000000000000 0.0000000000000000 0.0
0.0000000000000000 0.0000000000000000 0.0
0.0000000000000000 0.0000000000000000 0.0
0.0000000000000000 0.0000000000000000 0.0
0.0000000000000000 0.0000000000000000 0.0
0.0000000000000000 0.0000000000000000 0.0
0.0000000000000000 0.0000000000000000 0.0
0.0000000000000000 0.0000000000000000 0.0
0.0000000000000000 0.0000000000000000 0.0
0.0000000000000000 0.0000000000000000 0.0
0.0000000000000000 0.0000000000000000 0.0
0.0000000000000000 0.0000000000000000 0.0
0.0000000000000000 0.0000000000000000 0.0
0.0000000000000000 0.0000000000000000 0.0
0.0000000000000000 0.0000000000000000 0.0
0.0000000000000000 0.0000000000000000 0.0
0.0000000000000000 0.0000000000000000 0.0
0.0000000000000000 0.0000000000000000 0.0
0.0000000000000000 0.0000000000000000 0.0
0.0000000000000000 0.0000000000000000 0.0
0.0000000000000000 0.0000000000000000 0.0
0.0000000000000000 0.0000000000000000 0.0
0.0000000000000000 0.0000000000000000 0.0
0.0000000000000000 0.0000000000000000 0.0
0.0000000000000000 0.0000000000000000 0.0
0.0000000000000000 0.0000000000000000 0.0
0.0000000000000000 0.0000000000000000 0.0
0.0000000000000000 0.0000000000000000 0.0
0.0000000000000000 0.0000000000000000 0.0
0.0000000000000000 0.0000000000000000 0.0
0.0000000000000000 0.0000000000000000 0.0
0.0000000000000000 0.0000000000000000 0.0
0.0000000000000000 0.0000000000000000 0.0
0.0000000000000000 0.0000000000000000 0.0
0.0000000000000000 0.0000000000000000 0.0
0.0000000000000000 0.0000000000000000 0.0
0.0000000000000000 0.0000000000000000 0.0
0.0000000000000000 0.0000000000000000 0.0
0.0000000000000000 0.0000000000000000 0.0
0.0000000000000000 0.0000000000000000 0.0
0.0000000000000000 0.0000000000000000 0.0
0.0000000000000000 0.0000000000000000 0.0
0.0000000000000000 0.0000000000000000 0.0
1.0771402284526777 0.5437855577125499 0.0
0.9956129090703504 0.1367469653652413 0.0
0.9602838364682559 -0.0887974909005254 0.0
1.0633965584374312 -0.4542362231336886 0.0
0.0000000000000000 0.0000000000000000 0.0
0.0000000000000000 0.0000000000000000 0.0
0.0000000000000000 0.0000000000000000 0.0
0.0000000000000000 0.0000000000000000 0.0
0.0000000000000000 0.0000000000000000 0.0
0.0000000000000000 0.0000000000000000 0.0
0.0000000000000000 0.0000000000000000 0.0
0.0000000000000000 0.0000000000000000 0.0
0.0000000000000000 0.0000000000000000 0.0
0.0000000000000000 0.0000000000000000 0.0
0.0000000000000000 0.0000000000000000 0.0
0.0000000000000000 0.0000000000000000 0.0
0.0000000000000000 0.0000000000000000 0.0
0.0000000000000000 0.0000000000000000 0.0
0.0000000000000000 0.0000000000000000 0.0
0.0000000000000000 0.0000000000000000 0.0
0.0000000000000000 0.0000000000000000 0.0
0.0000000000000000 0.0000000000000000 0.0
0.0000000000000000 0.0000000000000000 0.0
0.0000000000000000 0.0000000000000000 0.0
0.0000000000000000 0.0000000000000000 0.0
0.0000000000000000 0.0000000000000000 0.0
0.0000000000000000 0.0000000000000000 0.0
0.0000000000000000 0.0000000000000000 0.0
0.0000000000000000 0.0000000000000000 0.0
0.0000000000000000 0.0000000000000000 0.0
0.0000000000000000 0.0000000000000000 0.0
0.0000000000000000 0.0000000000000000 0.0
0.0000000000000000 0.0000000000000000 0.0
0.0000000000000000 0.0000000000000000 0.0
0.0000000000000000 0.0000000000000000 0.0
0.0000000000000000 0.0000000000000000 0.0
0.0000000000000000 0.0000000000000000 0.0
0.0000000000000000 0.0000000000000000 0.0
0.0000000000000000 0.0000000000000000 0.0
0.0000000000000000 0.0000000000000000 0.0
0.0000000000000000 0.0000000000000000 0.0
0.0000000000000000 0.0000000000000000 0.0
0.0000000000000000 0.0000000000000000 0.0
0.0000000000000000 0.0000000000000000 0.0
0.0000000000000000 0.0000000000000000 0.0
0.0000000000000000 0.0000000000000000 0.0
0.0000000000000000 0.0000000000000000 0.0
0.0000000000000000 0.0000000000000000 0.0
0.0000000000000000 0.0000000000000000 0.0
0.0000000000000000 0.0000000000000000 0.0
1.0000000000000000 0.0000000000000000 0.0
1.0000000000000000 0.0000000000000000 0.0
1.0000000000000000 0.0000000000000000 0.0
1.0000000000000000 0.0000000000000000 0.0
0.0000000000000000 0.0000000000000000 0.0
0.0000000000000000 0.0000000000000000 0.0
0.0000000000000000 0.0000000000000000 0.0
0.0000000000000000 0.0000000000000000 0.0
0.0000000000000000 0.0000000000000000 0.0
0.0000000000000000 0.0000000000000000 0.0
0.0000000000000000 0.0000000000000000 0.0
0.0000000000000000 0.0000000000000000 0.0
0.0000000000000000 0.0000000000000000 0.0
0.0000000000000000 0.0000000000000000 0.0
0.0000000000000000 0.0000000000000000 0.0
0.0000000000000000 0.0000000000000000 0.0
1.5729584372334029 -0.0078301119790975 0.0
1.5758042717017768 0.0155387394883565 0.0
1.6304831876775283 -0.0109686824148720 0.0
1.6276903378335186 -0.0195664888942261 0.0
1.3501947817424631 0.0742996134091172 0.0
1.3701742607906311 0.0597081504575726 0.0
1.4061086411603261 -0.1065524705587375 0.0
1.3866229837318318 -0.1249275415552114 0.0
1.6079348904784652 0.0014447063048614 0.0
1.6072853135235996 -0.0056208915028797 0.0
1.5557594518309374 0.0047412514032344 0.0
1.5547533797322557 -0.0007399240415893 0.0
1.5715581871678714 -0.0315383228590853 0.0
1.5716139047161941 0.0159362412439447 0.0
1.6545050061317235 0.0090614284724186 0.0
1.6511715187416975 -0.0162618369945310 0.0
1.3247106333313305 0.3087957259316493 0.0
1.3239989498881262 0.3031995270052195 0.0
1.3395012713359451 0.0218096013498407 0.0
1.3601070377433704 -0.2242653765993067 0.0
1.3388773402807916 0.0165574439006416 0.0
1.3605777803385428 -0.2277587807846997 0.0
1.5490677563679534 0.0148552420452544 0.0
1.5325001694823843 -0.0347188613995950 0.0
1.3402187917779513 0.0089778192631271 0.0
1.3408036128336656 0.0080980606898606 0.0
1.2692041549237012 -0.0028168920558951 0.0
1.2601158449836320 -0.0038603178846437 0.0
1.3052545722417463 -0.0056446836380345 0.0
1.2131734263992815 -0.0146400332407716 0.0
1.1859063366250200 0.0086011379544569 0.0
1.3253644161999492 0.0025698556153329 0.0
1.4606449536531687 0.1343842513292119 0.0
1.4610478327247309 0.1323580036550087 0.0
1.4248467376605507 -0.2653712430655741 0.0
1.4302996212313939 -0.2688003941870871 0.0
1.4397886378642351 0.3425145988134516 0.0
1.4343785725635871 0.3416861523063507 0.0
1.1828041377835263 -0.0291134911725751 0.0
1.3014867626873037 -0.0070580872926025 0.0
1.2925926815693034 -0.0150404486004134 0.0
1.1877337646121042 -0.0304363823090078 0.0
1.0887964445209963 -0.0593099837350587 0.0
1.0925014311223069 -0.0496731390278284 0.0
1.1063975716812271 0.0356373049149676 0.0
1.1132605298436495 0.0220311252801745 0.0
1.2546493561836736 0.0049533397285170 0.0
1.2411705229465981 -0.0198332397236415 0.0
1.2441214137013699 0.0175296615005470 0.0
1.2506581423953149 -0.0035009494508392 0.0
1.4397315600682290 -0.0297687850989416 0.0
1.3213427682868255 0.0537466459041919 0.0
1.4441507066078954 0.0326158051923254 0.0
1.3137958519832162 -0.0474375690750573 0.0
1.5795214866267819 -0.2241348043430611 0.0
1.5790724551734219 -0.2237447761444689 0.0
1.1593310971429664 -0.0515575473120500 0.0
1.1827530603561847 0.0555221943770020 0.0
1.1471998059840343 -0.0562208316565128 0.0
1.1910389498060088 0.0429614579136570 0.0
1.4294631287331425 0.0314471720258159 0.0
1.4396760936478243 -0.0289391262149226 0.0
1.2945939942585436 -0.1605519422633942 0.0
1.2812469703927143 0.1932396144603516 0.0
1.1912581577515728 0.0512170694154430 0.0
1.1415398308578215 -0.0044065313891648 0.0
1.1875842595317261 -0.0374004473833799 0.0
1.1563575390908671 0.0313613141736676 0.0
1.2892634121639781 0.0084353806646678 0.0
1.2957903037269867 -0.0145556507934012 0.0
1.1582100572324958 0.0377120405690818 0.0
1.2183219994421024 -0.0661131168510247 0.0
1.1613418811741689 0.0405896577065146 0.0
1.2147994276439915 -0.0647047329351917 0.0
1.1707052031729233 0.0691914225220736 0.0
1.1448834422274698 -0.0400629550417766 0.0
1.1021032740370020 -0.0580350224133327 0.0
1.2046373464090336 0.0511659127910495 0.0
1.1039107028766992 -0.0235710697238082 0.0
1.0983062572893909 0.0191229131871752 0.0
1.5969097817516287 0.0096824144716016 0.0
1.5985817338337114 0.0001595533259412 0.0
1.4669962752656298 0.0353694518408232 0.0
1.4821579125386546 -0.0672114495860371 0.0
0.4849305729974807 -0.0119941070244252 0.0
0.4678891373688563 -0.0135512185547813 0.0
0.5827832651800332 0.1050476238391265 0.0
0.6012462782863455 0.1044397238318340 0.0
1.4631873138225919 0.4382111090666987 0.0
1.4585581294398702 0.4353270521912801 0.0
1.5409567878640236 -0.3507439403147088 0.0
1.5429419166085965 -0.3514963110422607 0.0
0.9806920182117450 0.0294731389763823 0.0
0.9812206096209961 0.0408594713891518 0.0
1.6083423170220319 0.0303321905222925 0.0
1.6011603144074660 -0.0422385654833675 0.0
1.1594163096727728 0.1959078305217641 0.0
1.1963447802287943 -0.2744832500303372 0.0
1.5042002002114037 -0.0536901428420926 0.0
1.4844577690208554 0.0158834100193050 0.0
0.7376413373664481 -0.0074733483839246 0.0
0.7588460690228538 0.0061410986989075 0.0
0.9157443257717393 -0.0166513272247757 0.0
0.9288115701919019 -0.0197108739027633 0.0
0.9438378562146587 0.0035719098380100 0.0
0.9336292335182172 0.0032999212667161 0.0
1.5750349393234815 -0.0254358595042897 0.0
1.5747295551248630 -0.0526186526128517 0.0
0.6730293710650925 -0.0858774183288385 0.0
0.6727122670866499 -0.0870301304122143 0.0
0.7194191300921691 0.0668939994845753 0.0
0.7195137128171089 0.0658528296871134 0.0
1.4949163713504883 0.0463456005555065 0.0
1.4953780568483828 0.0323887079099744 0.0
0.9023668303079214 -0.1208794529162530 0.0
0.9030973558431896 -0.1238228352334851 0.0
1.3574829410143201 0.0005575540541469 0.0
1.2763753635658817 0.0142994294865071 0.0
1.0033348219289056 -0.0929532078639697 0.0
1.0037698950088942 -0.0928673448912089 0.0
1.5074721174445389 -0.0317736082548267 0.0
1.5137407996594137 -0.0348530722240737 0.0
1.4742244311223545 0.0436480517742161 0.0
1.4787072398057257 0.0504878555139530 0.0
0.7566745783484219 -0.0060190235539745 0.0
0.7592402673716079 -0.0052536766985689 0.0
0.7105803344983218 0.0195177444764782 0.0
0.7010234517050155 0.0167854873680722 0.0
0.8174928446167286 0.0370723328324436 0.0
0.8404416884961671 -0.0647059241308214 0.0
0.7483600873682075 0.0874390405367580 0.0
0.7509011483918834 0.0846992930340818 0.0
1.5774115593937170 -0.0112370348427119 0.0
1.5874139118908643 0.0061108416075127 0.0
1.5836255161490065 -0.0076752370992150 0.0
1.5843085302866671 -0.0085472206152254 0.0
0.7046318521920920 -0.0023844245330559 0.0
0.7284390786323676 0.0253950927674948 0.0
0.7098915279657271 -0.0126625662304046 0.0
0.7065248804201316 0.0173928092803525 0.0
1.6252244955900821 -0.0009460081424294 0.0
1.6285854048032224 -0.0451435780262857 0.0
1.5151241387409795 -0.0153010709409821 0.0
1.5160186534404367 -0.0164871154801104 0.0
0.7164582158958641 -0.0104155039277563 0.0
0.6397142381882620 0.0177073208791938 0.0
0.6513866837490206 -0.0192588973485405 0.0
0.6992167829765584 0.0089570573721267 0.0
0.8067994267360419 0.0309038447386802 0.0
0.7802649197795580 -0.0210456059727757 0.0
0.8112358588188266 0.0211227267332662 0.0
0.7940625747104939 -0.0270778135974680 0.0
1.4128498421054181 -0.0078493905314909 0.0
1.4364733752120491 0.0002007816839836 0.0
1.4164157351009850 -0.0013893747975541 0.0
1.4360364235866447 0.0043047504769024 0.0
1.5758055525906511 0.0027582010792323 0.0
1.5647804367204048 -0.0103615712867820 0.0
1.3156580115427909 0.0100841442594195 0.0
1.3563093105202022 -0.0305029600794613 0.0
1.4088373882649297 0.0037970495102672 0.0
1.4157034975047749 -0.0128403601522866 0.0
0.7237373984269211 -0.0170878640345544 0.0
0.6700330296405488 0.0194356664665214 0.0
0.7247107079602401 -0.0186358636177278 0.0
0.6720137055404715 0.0206711408300404 0.0
0.5641158847847724 -0.1148304307341024 0.0
0.5679031526394207 -0.1098184879802109 0.0
1.2868169773344864 0.1164358503534833 0.0
1.2859176607527047 0.1141966313908254 0.0
1.4202855410169328 -0.0138387684625627 0.0
1.3827544710560340 -0.0380157799921907 0.0
1.3868495258031728 0.0226856061633529 0.0
1.4212701494703681 -0.0021820127123268 0.0
0.7984613177245460 -0.0649515551611821 0.0
0.7982509431212240 0.0746752757890429 0.0
1.1153164093854040 -0.1502100321877456 0.0
1.1154728997545373 -0.1456732513639131 0.0
1.1211407394871076 0.2122942568911429 0.0
1.1166056658100600 0.2141676114397177 0.0
0.8464949033474750 -0.0426763174877286 0.0
0.8084379472556985 0.0491119173145106 0.0
0.8418959353815930 -0.0387787544102636 0.0
0.8142161710214637 0.0548097295001566 0.0
1.5519782334509589 -0.0100794262080010 0.0
1.5521576176954930 -0.0184696336497518 0.0
0.6851203776999959 -0.0208169315973043 0.0
0.7044018510371920 0.0036919268813950 0.0
0.6484136129094105 0.0246588860416658 0.0
0.7313996944536907 0.0420063190116527 0.0
0.6616204378945538 0.0016113814534916 0.0
0.6662067164502917 -0.0021394504028066 0.0
1.4100423323043947 -0.2004867190322057 0.0
1.4065977420954083 -0.1933176243478373 0.0
1.2774976497535695 0.2520572498597544 0.0
1.2775361937211123 0.2368280388607822 0.0
0.4895578115657321 -0.0514510151066411 0.0
0.4966430192323371 -0.0507621372848676 0.0
0.4966585484820347 0.0521758228182872 0.0
0.5038688441683821 0.0504598826896199 0.0
1.4017627558709309 -0.0060998800927872 0.0
1.4051135221348356 -0.0032049613899985 0.0
1.4089398682806684 -0.1530333645819967 0.0
1.4223896899502531 -0.1516599896660741 0.0
1.4347572620749562 0.1668087014815590 0.0
1.4172249719881720 0.1642797752965321 0.0
0.8525151998439109 0.0397090062252460 0.0
0.7457906709667806 -0.1085331809174109 0.0
0.8392713279732442 0.0504929161331385 0.0
0.7632477526537029 -0.0929797728192001 0.0
1.3960293073968915 -0.0444845183311364 0.0
1.3694517601543659 0.0511249396206745 0.0
1.3911987564204891 -0.0381943412599717 0.0
1.3728246644222168 0.0584772225714731 0.0
1.5091847493339157 -0.0006817279308096 0.0
1.5078483872131154 -0.0299915564820965 0.0
0.6472727018207425 0.0017173001141233 0.0
0.6502414694891295 0.0048703341118086 0.0
1.3899004367943142 0.0782003305483204 0.0
1.4015309538805809 0.0533365208742510 0.0
1.5191409750145615 -0.0414540939543874 0.0
1.4951904914787308 0.0452784535966644 0.0
0.7073484029943962 0.0880512405533186 0.0
0.6951154089316739 0.0952912397737525 0.0
1.4614778442574337 -0.0286823766761088 0.0
1.4145255037432498 0.0355922311328273 0.0
1.4143875345394650 -0.0499475268113975 0.0
1.4608815592510977 0.0042111028515109 0.0
1.6318477242349627 0.0178182015616596 0.0
1.6452737793169334 -0.0248402092531364 0.0
0.5040577714269598 0.0004078103718314 0.0
0.5022939833908561 0.0016385319872200 0.0
1.5279534259908845 -0.0305674235441121 0.0
1.5253402556865210 0.0302044929182455 0.0
0.9374504980552978 0.2269454102625979 0.0
0.9056999869147263 -0.2233326377519646 0.0
1.4795374789585882 -0.0149503743704425 0.0
1.4787281773791556 -0.0042079790610175 0.0
1.3153390641824860 0.0072388521742083 0.0
1.3556635624595641 -0.0316109696397749 0.0
1.3236267791041949 -0.0142728628473775 0.0
1.3272986791211143 -0.0143438377580090 0.0
1.2046871740328771 -0.1169937391074661 0.0
1.2047368126284701 -0.1171582932933951 0.0
1.4798950126774253 -0.0200188545884038 0.0
1.4326583926225445 0.0047934590330582 0.0
1.4523843835295671 -0.0301485819919208 0.0
1.4412037663043273 0.0313672436294669 0.0
1.4872244427178625 -0.0250631257253090 0.0
1.4389886470074531 0.0097773374847440 0.0
0.4320969886525546 0.0488333142544878 0.0
0.4346245087859967 0.0452178994054771 0.0
0.4275602698994962 -0.0324621759567254 0.0
0.4206421497369940 -0.0359679063563445 0.0
1.4358323763397698 -0.3227681372359730 0.0
1.4370275332422724 -0.3252829314157172 0.0
0.3971782608346179 0.0066504341053931 0.0
0.4059408093895747 -0.0108288492964443 0.0
1.5132875963234165 0.3202489800027946 0.0
1.5145963862700840 0.3152572090659998 0.0
0.5921521481671866 0.0980146505283711 0.0
0.5930454899724501 0.0969532613122739 0.0
1.5175236771919987 0.0232067327299130 0.0
1.5205483754744826 -0.0223538122549263 0.0
1.3281498058405667 -0.0151137083885480 0.0
1.3407782663202423 0.0149217830321381 0.0
1.4555752199215966 -0.3618478010308551 0.0
1.4515697695123735 -0.3594508051441601 0.0
1.3970448409707203 0.4722299035418601 0.0
1.4065395886538690 0.4684974739672704 0.0
1.5804641240717217 0.0070711563917394 0.0
1.5790327340847112 0.0067124770326578 0.0
0.4866886287627683 0.0549518243639632 0.0
0.4658812908467126 -0.0606500482938844 0.0
0.4798876789257814 0.0587754197982639 0.0
0.4754995401751148 -0.0571184471599730 0.0
0.3961606711814277 0.0273772541012610 0.0
0.4166051040833123 0.0275762848082713 0.0
0.4330494427781030 -0.0149140750578297 0.0
0.4540246080628731 -0.0162589940226821 0.0
1.2290460004238850 -0.1980964548231189 0.0
1.2453896076172817 -0.1983797296754840 0.0
1.2598230083515598 0.2676108920501450 0.0
1.2443359994616860 0.2676631743603501 0.0
1.2069306059050693 -0.2721522071181025 0.0
1.1809054057193979 0.2658962668477716 0.0
1.4489540561712011 0.0047457242441656 0.0
1.4556047915642896 0.0154866604238937 0.0
0.5107582384160483 -0.0090810055435648 0.0
0.4862985041203222 -0.0004916505204368 0.0
0.5202439906196269 0.0139976674591874 0.0
0.4989917592104965 0.0043142856905260 0.0
1.4840543986525763 -0.0193743794155177 0.0
1.4725191461299225 0.0052566625072678 0.0
1.3325594012174784 -0.0251318975929049 0.0
1.3340953749706128 -0.0231011107640943 0.0
0.8723581908795494 0.2642319877830636 0.0
0.9352044832548121 -0.2433611514603098 0.0
1.0470995780887484 0.0799251144053755 0.0
1.0519925476973240 0.0854720396760189 0.0
1.0658434956198304 -0.1038600929944209 0.0
1.0647886350151845 -0.1055824387741271 0.0
0.6351634593835492 -0.1340310486138367 0.0
0.6496909472263359 0.1421633981254895 0.0
0.2907205613493112 -0.0254946658159951 0.0
0.2933264178423577 -0.0245549605360369 0.0
0.2995008847146090 -0.0095022559463340 0.0
0.2987075399214619 -0.0093323961351919 0.0
0.3567779442750093 -0.0116715057017337 0.0
0.3567191194001844 0.0118235431849003 0.0
1.2243931700133066 0.3278820024172687 0.0
1.1734668519513431 -0.2644522381898400 0.0
0.5061921712006675 -0.0602218755659513 0.0
0.4956390951029045 0.0721304269286177 0.0
0.5049254494992094 -0.0594123535436254 0.0
0.4972422220911170 0.0738948756537434 0.0
1.4847591765793584 0.0484223238562077 0.0
1.4950215322277562 -0.0613705822969836 0.0
0.4524591337270910 0.0757928601103144 0.0
0.5225487883251952 -0.1242726278289820 0.0
0.9585026401189206 0.0582142736637752 0.0
0.9548659749663526 0.0566867263374665 0.0
0.9803936554352624 -0.0548831925764666 0.0
0.9809335338179723 -0.0546592734857462 0.0
0.8737330397730527 0.0266506718079323 0.0
0.8741727152221922 0.0363305478981492 0.0
0.5334752628679860 0.0445544034473615 0.0
0.5089222028601615 -0.0577575540198286 0.0
0.5306737718363721 0.0433330901275446 0.0
0.5078349944132552 -0.0578542855062681 0.0
1.5418511931111745 -0.0058665579662248 0.0
1.5388578539919180 -0.0028764372021796 0.0
0.4260347173060953 -0.0723270710035576 0.0
0.4742844009926227 0.0498554160121371 0.0
0.4600355210485385 0.0610585859078869 0.0
0.4446523316998254 -0.0608771076436582 0.0
1.0293138719237183 0.0350794888548871 0.0
1.0626686695209226 0.0380324586087516 0.0
1.0927740902025120 -0.0534663163984426 0.0
1.0705059687634357 -0.0562660579211970 0.0
1.3137856065527926 0.0149507020255776 0.0
1.3105408457899619 0.0232640535084947 0.0
1.3553352398829104 -0.0668252594095587 0.0
1.3679785237509379 -0.0408012154241594 0.0
1.0712280183312985 -0.1167987890791913 0.0
1.0677478483597302 -0.1224390830403929 0.0
0.5295725688964487 -0.0018866773343375 0.0
0.5304169166950936 0.0075471486105107 0.0
0.5363308177322400 0.0042361413519303 0.0
0.5216350500960667 -0.0060303960879685 0.0