# vtk DataFile Version 3.0
LucasCarvalhoTCC Results
ASCII

DATASET POLYDATA
FIELD FieldData 1
TIME 1 1 double
3.3000000000000003

POINTS 494 float
0.0 0.0 0.0
8.0 0.0 0.0
8.0 1.0 0.0
0.0 1.0 0.0
4.0 0.0 0.0
4.0 1.0 0.0
4.0 0.35 0.0
4.0 0.65 0.0
0.2010296266416496 1.0 0.0
0.3986915135488555 1.0 0.0
0.5930420631591132 1.0 0.0
0.7841367769318693 1.0 0.0
0.9720301907499852 1.0 0.0
1.156775924166146 1.0 0.0
1.33842670621592 1.0 0.0
1.517034389070868 1.0 0.0
1.69264994674003 1.0 0.0
1.865323550794866 1.0 0.0
2.035104414722059 1.0 0.0
2.202040983487818 1.0 0.0
2.366180993436638 1.0 0.0
2.527571282866703 1.0 0.0
2.686257831390245 1.0 0.0
2.842286022819771 1.0 0.0
2.995700353514032 1.0 0.0
3.146544637914273 1.0 0.0
3.294861880721452 1.0 0.0
3.440694398353104 1.0 0.0
3.58408394609007 1.0 0.0
3.725071294102791 1.0 0.0
3.863696788294668 1.0 0.0
4.136303211705004 1.0 0.0
4.274928705896546 1.0 0.0
4.415916053908917 1.0 0.0
4.55930560164552 1.0 0.0
4.7051381192768 1.0 0.0
4.853455362083593 1.0 0.0
5.004299646483437 1.0 0.0
5.157713977177285 1.0 0.0
5.313742168606385 1.0 0.0
5.472428717129489 1.0 0.0
5.6338190065591 1.0 0.0
5.797959016507455 1.0 0.0
5.96489558527273 1.0 0.0
6.134676449200184 1.0 0.0
6.307350053255487 1.0 0.0
6.482965610925135 1.0 0.0
6.661573293780584 1.0 0.0
6.843224075830887 1.0 0.0
7.027969809247587 1.0 0.0
7.215863223066262 1.0 0.0
7.4069579368396 1.0 0.0
7.601308486450315 1.0 0.0
7.798970373357896 1.0 0.0
8.0 0.7999999999999996 0.0
8.0 0.6000000000013874 0.0
8.0 0.4000000000016649 0.0
8.0 0.2000000000008324 0.0
7.798970373357898 0.0 0.0
7.601308486450317 0.0 0.0
7.406957936839601 0.0 0.0
7.215863223066265 0.0 0.0
7.02796980924759 0.0 0.0
6.843224075830888 0.0 0.0
6.661573293780592 0.0 0.0
6.482965610925139 0.0 0.0
6.307350053255492 0.0 0.0
6.134676449200188 0.0 0.0
5.964895585272735 0.0 0.0
5.797959016507459 0.0 0.0
5.633819006559103 0.0 0.0
5.472428717129493 0.0 0.0
5.313742168606389 0.0 0.0
5.157713977177288 0.0 0.0
5.004299646483441 0.0 0.0
4.853455362083597 0.0 0.0
4.705138119276803 0.0 0.0
4.559305601645523 0.0 0.0
4.415916053908919 0.0 0.0
4.274928705896549 0.0 0.0
4.136303211705007 0.0 0.0
3.863696788294383 0.0 0.0
3.725071294102209 0.0 0.0
3.584083946089184 0.0 0.0
3.440694398352564 0.0 0.0
3.29486188072223 0.0 0.0
3.146544637916415 0.0 0.0
2.995700353517581 0.0 0.0
2.842286022824779 0.0 0.0
2.68625783139676 0.0 0.0
2.527571282874774 0.0 0.0
2.366180993446318 0.0 0.0
2.202040983499156 0.0 0.0
2.035104414735112 0.0 0.0
1.865323550807426 0.0 0.0
1.692649946751479 0.0 0.0
1.517034389081164 0.0 0.0
1.338426706225015 0.0 0.0
1.156775924174005 0.0 0.0
0.9720301907565596 0.0 0.0
0.784136776937109 0.0 0.0
0.5930420631629705 0.0 0.0
0.3986915135514271 0.0 0.0
0.2010296266429896 0.0 0.0
0.0 0.199999999999558 0.0
0.0 0.3999999999989746 0.0
0.0 0.5999999999989464 0.0
0.0 0.7999999999994731 0.0
4.065082561150232 0.3648546699507293 0.0
4.117274722996153 0.4064765305061043 0.0
4.146239186965635 0.4666218605127571 0.0
4.146239186588658 0.5333781411388893 0.0
4.117274722147235 0.5935234705584039 0.0
4.065082560620447 0.6351453303044018 0.0
3.934917439190226 0.6351453302132268 0.0
3.882725277520537 0.5935234701418048 0.0
3.853760813071839 0.5333781396514286 0.0
3.853760813263242 0.4666218595099774 0.0
3.882725277782338 0.4064765295299076 0.0
3.934917439246251 0.3648546697597932 0.0
3.348071016817302 0.5037366844559412 0.0
4.65817771841185 0.4813089492125461 0.0
5.148432135339639 0.5000000000000013 0.0
2.851567863014233 0.5000000000000465 0.0
4.406326506211093 0.3072680842959042 0.0
3.575604791543614 0.6706702532911111 0.0
4.424395205595821 0.6706702556565258 0.0
3.593673497058965 0.3072680820819204 0.0
5.648652107845511 0.5000000000000006 0.0
2.351347890458042 0.4999999999998563 0.0
1.851146954963573 0.4999999999998219 0.0
6.148853043290459 0.4999999999999989 0.0
6.65089532386231 0.5241211434250735 0.0
1.349104674975677 0.4758788558671475 0.0
7.150713697794147 0.4858064203922342 0.0
0.8492863006035025 0.4858064203396458 0.0
4.216343713145164 0.2287135668575249 0.0
3.7836562881134 0.7712864338025908 0.0
4.346988371127422 0.5000000019594898 0.0
4.213775907987267 0.7756803165215952 0.0
3.653011628408684 0.4999999990051173 0.0
3.786224091202296 0.224319683220954 0.0
7.572712389010231 0.5763628491757339 0.0
0.4272876103144935 0.5763628498169726 0.0
4.881741322202974 0.3185523670790996 0.0
3.118258676783759 0.6814476337404539 0.0
3.126854924363118 0.2792890251323842 0.0
4.873145074373641 0.7207109754187309 0.0
5.398381996912613 0.291094588046412 0.0
5.396092528392672 0.7230702977293901 0.0
2.603907471650227 0.7230702981371074 0.0
2.601618001742297 0.2910945873520305 0.0
4.065645388412852 0.1903894420877926 0.0
3.934354612281609 0.8096105573695707 0.0
4.268393145079946 0.6292513280674802 0.0
3.731606853978594 0.3707486723017213 0.0
4.265062587797852 0.3723525870906427 0.0
3.734937412407246 0.6276474138958879 0.0
5.89991820844496 0.720584760457478 0.0
5.899661142431216 0.2940789491313893 0.0
2.100338856207466 0.7059210507243335 0.0
2.100081790085733 0.2794152396968363 0.0
4.648216390708278 0.2460745758417431 0.0
3.350865525112209 0.7519279174007294 0.0
3.351783614314077 0.2460745727859678 0.0
4.649134469923633 0.7519279206208029 0.0
6.386000070083336 0.2800687217561524 0.0
6.399946740387701 0.7091877900019353 0.0
1.613999929083956 0.7199312783619409 0.0
1.600053258667474 0.2908122092889953 0.0
1.099018086220021 0.3101534564461602 0.0
1.099018086220183 0.6898465435530818 0.0
6.900981912171285 0.3101534566801202 0.0
6.900981912171287 0.689846543319878 0.0
3.934891793257755 0.2336799984692873 0.0
4.065108206439434 0.7663200008196746 0.0
5.133077706310633 0.254681732561614 0.0
5.131620328745691 0.7509194919064351 0.0
2.866922291796803 0.7453182673725732 0.0
2.868379670398546 0.2490805081265555 0.0
0.5973224633027379 0.3123440263675117 0.0
7.402677535116692 0.3123440263206204 0.0
7.70928508668797 0.2984218335093966 0.0
0.2907149122204558 0.2984218350042115 0.0
2.359042531710287 0.2526358364218651 0.0
2.362552667743482 0.7498876177132479 0.0
5.640957467742433 0.2526358368965552 0.0
5.637447332034727 0.7498876177447886 0.0
7.330771635020911 0.7204300868765696 0.0
0.6692283641678903 0.7204300870263377 0.0
6.141991504218947 0.7500064293114952 0.0
6.143214654121697 0.2541610692540839 0.0
1.858008494097047 0.2499935706645152 0.0
1.856785344746094 0.7458389307817799 0.0
1.360037479834015 0.7503851535261052 0.0
1.363297687800482 0.2332108063209677 0.0
6.636702311691573 0.7667891933666813 0.0
6.639962519949044 0.2496148464378299 0.0
7.14328150074831 0.2292696686424185 0.0
0.8567184978980538 0.2292696684503961 0.0
4.845173759433459 0.5000000012080886 0.0
3.15482623877425 0.4999999993865263 0.0
3.514470413944982 0.5755907957035395 0.0
4.485529584365944 0.5755907996488695 0.0
4.350214515329574 0.8947484376274254 0.0
3.64978548377064 0.1052515623441257 0.0
4.356280753270322 0.1397878825788729 0.0
3.643719248073251 0.8602121180766233 0.0
4.157657982820168 0.3023031440803671 0.0
3.842342017851872 0.6976968563131654 0.0
4.149794964153143 0.6947625877680722 0.0
3.850205035403508 0.3052374120341299 0.0
4.252863769441745 0.5000000013253333 0.0
3.747136230269581 0.4999999993774377 0.0
2.66150837620265 0.4835883053501762 0.0
5.338491622258749 0.4835883052760253 0.0
7.732076714471282 0.7613785341653052 0.0
0.267923285219987 0.7613785345749642 0.0
3.482582425594127 0.3988584940714734 0.0
4.517417574829351 0.3988584973195787 0.0
7.120961454429095 0.7969630876933931 0.0
0.8790385446795201 0.7969630878928393 0.0
4.524178509919695 0.1937066442020419 0.0
3.472973035782958 0.803602443762734 0.0
4.527026959328886 0.8036024455277256 0.0
3.475821495314308 0.1937066425220846 0.0
5.834485749168302 0.4775259269822466 0.0
2.16551424934095 0.5224740729963462 0.0
4.803832126993392 0.8343163881584211 0.0
3.196167871756218 0.1656836120733276 0.0
3.196167870279283 0.834316388182051 0.0
4.803832130306974 0.1656836112805605 0.0
1.646902821176459 0.5088844228822333 0.0
6.35309717778631 0.4911155766888507 0.0
4.128745436683365 0.8608937921704661 0.0
3.871254562700506 0.1391062074145501 0.0
7.783519314041498 0.4824599318584197 0.0
0.2164806854160975 0.4824599323519634 0.0
3.981228286637499 0.1341601386487245 0.0
4.018771713398118 0.8658398609794804 0.0
4.757705393330306 0.6277793253200102 0.0
3.245404476813698 0.3720431195654205 0.0
3.262406961538709 0.609092082228193 0.0
4.738552632749474 0.3854106153034425 0.0
4.980576921401999 0.1828043249223437 0.0
3.019423077460087 0.8171956749482756 0.0
4.975386875116307 0.8288560892267683 0.0
3.024613123995747 0.1711439108946455 0.0
7.537862127958827 0.7914398748884439 0.0
0.46213787149577 0.7914398749623154 0.0
4.150965283491015 0.1232311208167031 0.0
3.849034718225983 0.8767688792466098 0.0
0.6330166515036239 0.5212993800799176 0.0
7.366983347335347 0.5212993798709434 0.0
5.001451172914062 0.4591396125040952 0.0
2.998548825585332 0.5408603877155073 0.0
5.250532135494552 0.1623854812497458 0.0
5.24999687257574 0.8404382486850067 0.0
2.749794930508214 0.8396380739052673 0.0
2.749676059914328 0.161585306286623 0.0
1.150631951549359 0.5017906253149568 0.0
6.85747267660715 0.5137706215776152 0.0
2.938770240933895 0.3859183074771494 0.0
5.061229757952985 0.6140816927005173 0.0
5.521883200863776 0.8371838481144578 0.0
5.520780843451154 0.1567733764659754 0.0
2.479219155991939 0.1567733759623464 0.0
2.478116798894765 0.8371838481096507 0.0
2.208224060227917 0.1725929992863016 0.0
2.214655190115911 0.821187355218689 0.0
5.791775938918927 0.8274070011383262 0.0
5.785558009721889 0.1789659155514431 0.0
5.243140500145841 0.3651007420679131 0.0
5.247758683472709 0.6318228659349833 0.0
2.748336099792684 0.6332079670712092 0.0
2.766145970608876 0.3583112578457802 0.0
2.500794992947401 0.4517155340697119 0.0
5.499205006433885 0.4517155344186723 0.0
3.472119223331378 0.69283875816516 0.0
4.527880773131323 0.6928387614752662 0.0
2.445947440949104 0.6396216022327238 0.0
5.554052558509333 0.6396216019605415 0.0
[...]
POINT_DATA 494

VECTORS Velocity float
0.0000000000000000 0.0000000000000000 0.0
0.8198923656033550 -0.1380747734783015 0.0
0.0000000000000000 0.0000000000000000 0.0
0.0000000000000000 0.0000000000000000 0.0
0.0000000000000000 0.0000000000000000 0.0
0.0000000000000000 0.0000000000000000 0.0
0.0000000000000000 0.0000000000000000 0.0
0.0000000000000000 0.0000000000000000 0.0
0.0000000000000000 0.0000000000000000 0.0
0.0000000000000000 0.0000000000000000 0.0
0.0000000000000000 0.0000000000000000 0.0
0.0000000000000000 0.0000000000000000 0.0
0.0000000000000000 0.0000000000000000 0.0
0.0000000000000000 0.0000000000000000 0.0
0.0000000000000000 0.0000000000000000 0.0
0.0000000000000000 0.0000000000000000 0.0
0.0000000000000000 0.0000000000000000 0.0
0.0000000000000000 0.0000000000000000 0.0
0.0000000000000000 0.0000000000000000 0.0
0.0000000000000000 0.0000000000000000 0.0
0.0000000000000000 0.0000000000000000 0.0
0.0000000000000000 0.0000000000000000 0.0
0.0000000000000000 0.0000000000000000 0.0
0.0000000000000000 0.0000000000000000 0.0
0.0000000000000000 0.0000000000000000 0.0
0.0000000000000000 0.0000000000000000 0.0
0.0000000000000000 0.0000000000000000 0.0
0.0000000000000000 0.0000000000000000 0.0
0.0000000000000000 0.0000000000000000 0.0
0.0000000000000000 0.0000000000000000 0.0
0.0000000000000000 0.0000000000000000 0.0
0.0000000000000000 0.0000000000000000 0.0
0.0000000000000000 0.0000000000000000 0.0
0.0000000000000000 0.0000000000000000 0.0
0.0000000000000000 0.0000000000000000 0.0
0.0000000000000000 0.0000000000000000 0.0
0.0000000000000000 0.0000000000000000 0.0
0.0000000000000000 0.0000000000000000 0.0
0.0000000000000000 0.0000000000000000 0.0
0.0000000000000000 0.0000000000000000 0.0
0.0000000000000000 0.0000000000000000 0.0
0.0000000000000000 0.0000000000000000 0.0
0.0000000000000000 0.0000000000000000 0.0
0.0000000000000000 0.0000000000000000 0.0
0.0000000000000000 0.0000000000000000 0.0
0.0000000000000000 0.0000000000000000 0.0
0.0000000000000000 0.0000000000000000 0.0
0.0000000000000000 0.0000000000000000 0.0
0.0000000000000000 0.0000000000000000 0.0
0.0000000000000000 0.0000000000000000 0.0
0.0000000000000000 0.0000000000000000 0.0
0.0000000000000000 0.0000000000000000 0.0
0.0000000000000000 0.0000000000000000 0.0
0.0000000000000000 0.0000000000000000 0.0
1.0770949577821638 0.5443221918633042 0.0
0.9956027747338391 0.1377355489970002 0.0
0.9602361139889052 -0.0879390408121259 0.0
1.0633880605080972 -0.4539747217541922 0.0
0.0000000000000000 0.0000000000000000 0.0
0.0000000000000000 0.0000000000000000 0.0
0.0000000000000000 0.0000000000000000 0.0
0.0000000000000000 0.0000000000000000 0.0
0.0000000000000000 0.0000000000000000 0.0
0.0000000000000000 0.0000000000000000 0.0
0.0000000000000000 0.0000000000000000 0.0
0.0000000000000000 0.0000000000000000 0.0
0.0000000000000000 0.0000000000000000 0.0
0.0000000000000000 0.0000000000000000 0.0
0.0000000000000000 0.0000000000000000 0.0
0.0000000000000000 0.0000000000000000 0.0
0.0000000000000000 0.0000000000000000 0.0
0.0000000000000000 0.0000000000000000 0.0
0.0000000000000000 0.0000000000000000 0.0
0.0000000000000000 0.0000000000000000 0.0
0.0000000000000000 0.0000000000000000 0.0
0.0000000000000000 0.0000000000000000 0.0
0.0000000000000000 0.0000000000000000 0.0
0.0000000000000000 0.0000000000000000 0.0
0.0000000000000000 0.0000000000000000 0.0
0.0000000000000000 0.0000000000000000 0.0
0.0000000000000000 0.0000000000000000 0.0
0.0000000000000000 0.0000000000000000 0.0
0.0000000000000000 0.0000000000000000 0.0
0.0000000000000000 0.0000000000000000 0.0
0.0000000000000000 0.0000000000000000 0.0
0.0000000000000000 0.0000000000000000 0.0
0.0000000000000000 0.0000000000000000 0.0
0.0000000000000000 0.0000000000000000 0.0
0.0000000000000000 0.0000000000000000 0.0
0.0000000000000000 0.0000000000000000 0.0
0.0000000000000000 0.0000000000000000 0.0
0.0000000000000000 0.0000000000000000 0.0
0.0000000000000000 0.0000000000000000 0.0
0.0000000000000000 0.0000000000000000 0.0
0.0000000000000000 0.0000000000000000 0.0
0.0000000000000000 0.0000000000000000 0.0
0.0000000000000000 0.0000000000000000 0.0
0.0000000000000000 0.0000000000000000 0.0
0.0000000000000000 0.0000000000000000 0.0
0.0000000000000000 0.0000000000000000 0.0
0.0000000000000000 0.0000000000000000 0.0
0.0000000000000000 0.0000000000000000 0.0
0.0000000000000000 0.0000000000000000 0.0
0.0000000000000000 0.0000000000000000 0.0
1.0000000000000000 0.0000000000000000 0.0
1.0000000000000000 0.0000000000000000 0.0
1.0000000000000000 0.0000000000000000 0.0
1.0000000000000000 0.0000000000000000 0.0
0.0000000000000000 0.0000000000000000 0.0
0.0000000000000000 0.0000000000000000 0.0
0.0000000000000000 0.0000000000000000 0.0
0.0000000000000000 0.0000000000000000 0.0
0.0000000000000000 0.0000000000000000 0.0
0.0000000000000000 0.0000000000000000 0.0
0.0000000000000000 0.0000000000000000 0.0
0.0000000000000000 0.0000000000000000 0.0
0.0000000000000000 0.0000000000000000 0.0
0.0000000000000000 0.0000000000000000 0.0
0.0000000000000000 0.0000000000000000 0.0
0.0000000000000000 0.0000000000000000 0.0
1.5975538755530265 -0.0127220947928966 0.0
1.6000120115516065 0.0135197848024886 0.0
1.6367796697302337 -0.0117605577837568 0.0
1.6338635409002247 -0.0177263666550754 0.0
1.3438911524161155 0.0823503751514611 0.0
1.3679681936171111 0.0634222342983214 0.0
1.4104303656610231 -0.1088372041010593 0.0
1.3875376777872706 -0.1314445624869041 0.0
1.6114953707064539 0.0005769321190143 0.0
1.6109665644959659 -0.0079991939836049 0.0
1.5576383704476506 0.0055565972483174 0.0
1.5567482223617877 -0.0007700793124174 0.0
1.5730797110289396 -0.0318356379836329 0.0
1.5730905670356865 0.0166301577858418 0.0
1.6561873810274494 0.0097280616058765 0.0
1.6528012854317773 -0.0169970281590406 0.0
1.3201578351682930 0.3189951680839306 0.0
1.3196341240351011 0.3124754448510078 0.0
1.3635036991916314 0.0231794681173264 0.0
1.3535931150284286 -0.2330863596999595 0.0
1.3632457865534415 0.0177243951976080 0.0
1.3533502983066237 -0.2376608609649775 0.0
1.5492246253285020 0.0142611060866498 0.0
1.5329292675961228 -0.0340817021622320 0.0
1.3406508836489841 0.0050285488698357 0.0
1.3427810215399612 0.0048780466765169 0.0
1.2642109843688567 0.0015043634043471 0.0
1.2566987893260746 -0.0005904225771009 0.0
1.3046717870748157 -0.0065065744708267 0.0
1.2117330975775353 -0.0147627032905061 0.0
1.1822612957180199 0.0084443025126502 0.0
1.3267465038793969 0.0032882675784311 0.0
1.4606605899197294 0.1363908256131098 0.0
1.4610493321287905 0.1342470401674951 0.0
1.4356245109056316 -0.2747964420010894 0.0
1.4414891528235891 -0.2795790175316361 0.0
1.4422780712588485 0.3569421553688564 0.0
1.4373831762699312 0.3543906633978251 0.0
1.1807517422198561 -0.0288829857221487 0.0
1.3023544668966311 -0.0078205229058247 0.0
1.2936436640084514 -0.0171624981323390 0.0
1.1853766861331425 -0.0313055696010820 0.0
1.0788552402911022 -0.0653902427318679 0.0
1.0846931993280722 -0.0554297734946446 0.0
1.0961276447762058 0.0411506264026583 0.0
1.1057838710282997 0.0269859696654163 0.0
1.2555736944399303 0.0045085233258324 0.0
1.2402409118677185 -0.0204357059806571 0.0
1.2445662335055454 0.0191810330173798 0.0
1.2502661860535427 -0.0017524540702871 0.0
1.4404835546984023 -0.0311836248434459 0.0
1.3206299153998837 0.0528536350536583 0.0
1.4455072997307268 0.0339173654584730 0.0
1.3123992009892698 -0.0465835827414181 0.0
1.5784231204459280 -0.2288182697654439 0.0
1.5780848207309277 -0.2281525738081767 0.0
1.1560969397131922 -0.0541579711597548 0.0
1.1804175992879247 0.0582947873751213 0.0
1.1436660303669988 -0.0574256521283763 0.0
1.1888273472591324 0.0467237774782949 0.0
1.4288525248329855 0.0324309922158548 0.0
1.4397418462791860 -0.0299232740318483 0.0
1.2950499534681335 -0.1607352678376492 0.0
1.2810841830699156 0.1935409133777849 0.0
1.1905353511983363 0.0500090933600413 0.0
1.1388415685898390 -0.0050028945971577 0.0
1.1867397764682177 -0.0375288663459947 0.0
1.1541907785711933 0.0308172385901773 0.0
1.2893988680706689 0.0085639332232059 0.0
1.2966252976885098 -0.0147076607788090 0.0
1.1561206125192336 0.0378398521284159 0.0
1.2186081851410704 -0.0663504622822906 0.0
1.1583916944424248 0.0409843346403696 0.0
1.2160201942827438 -0.0648684624713063 0.0
1.1692669895799952 0.0695425561997750 0.0
1.1451413671105868 -0.0397131007501236 0.0
1.0992509616781931 -0.0578799434752426 0.0
1.2056241021915228 0.0510076001839041 0.0
1.1028863945649399 -0.0234960684513065 0.0
1.0965117688389994 0.0190778475888837 0.0
1.6115432898783493 0.0086624792185691 0.0
1.6138501065935398 -0.0003095022926109 0.0
1.4855263054907177 0.0325284029503657 0.0
1.5053268162630633 -0.0679318454384857 0.0
0.4747015293898370 -0.0138419284471428 0.0
0.4566276079480609 -0.0157469787679797 0.0
0.5726716500483922 0.1067234501041860 0.0
0.5920213591671505 0.1059050544878019 0.0
1.4644836826631378 0.4462460953081890 0.0
1.4597739614569938 0.4429541458811793 0.0
1.5441315178717721 -0.3589539037341866 0.0
1.5462339890261139 -0.3604390022354585 0.0
0.9892638388102213 0.0335369469238091 0.0
0.9899540076641383 0.0441539967598142 0.0
1.6122854899286228 0.0318289928433938 0.0
1.6044966907397071 -0.0435321805554058 0.0
1.1587266588796956 0.1959310928478389 0.0
1.1963005647339371 -0.2745100558068884 0.0
1.5277953997429354 -0.0542701275319723 0.0
1.5024620653829259 0.0114852518095405 0.0
0.7368558192725833 -0.0069568057711574 0.0
0.7585927118954479 0.0055417038846293 0.0
0.8971934272388753 -0.0166513670392379 0.0
0.9131280286286753 -0.0196983799231965 0.0
0.9284401617832001 0.0044762299071592 0.0
0.9149501601172342 0.0042238959907133 0.0
1.5782141175934301 -0.0262887294536431 0.0
1.5781701487259667 -0.0558178865511883 0.0
0.6655840077100518 -0.0840294010836416 0.0
0.6638482030137618 -0.0849111439088127 0.0
0.7127653684048373 0.0644815227999037 0.0
0.7113860624428161 0.0633331398435974 0.0
1.4962571173122288 0.0488288539825875 0.0
1.4968203609699826 0.0322041226706618 0.0
0.8997271095762431 -0.1247037648075328 0.0
0.9003147050637639 -0.1279339277687928 0.0
1.3577746153718762 0.0008788537038140 0.0
1.2764910063177759 0.0144533884903131 0.0
1.0037581957599875 -0.0944317358453055 0.0
1.0041274570778720 -0.0942685272566463 0.0
1.5160570567682243 -0.0280104413296941 0.0
1.5210045361681630 -0.0306043819052691 0.0
1.4850883082088395 0.0385856423371519 0.0
1.4884395506694470 0.0457196872416475 0.0
0.7506710158934663 -0.0079873282774462 0.0
0.7542482000189589 -0.0065617342303761 0.0
0.7050034789015009 0.0214149349941816 0.0
0.6945569351403770 0.0191692702416399 0.0
0.8170101464999061 0.0369788161610618 0.0
0.8405203847657726 -0.0646111063935488 0.0
0.7460512158884356 0.0902999417212013 0.0
0.7487063294652349 0.0873669547797112 0.0
1.5782458042160779 -0.0106588477608419 0.0
1.5882641837798057 0.0055383085709567 0.0
1.5924907797977330 -0.0078439914129768 0.0
1.5934180091660310 -0.0065131917079213 0.0
0.7021943924931617 -0.0032370611492980 0.0
0.7266592199118830 0.0263596271523218 0.0
0.7066703843184183 -0.0129097815059774 0.0
0.7052320022416267 0.0189374663773251 0.0
1.6268583159387362 -0.0022314380299468 0.0
1.6300203583848329 -0.0440511410020646 0.0
1.5207329938346943 -0.0104953251517072 0.0
1.5221175216453344 -0.0139855524992784 0.0
0.7149209374027593 -0.0106327246793583 0.0
0.6382469912229554 0.0177673063720756 0.0
0.6509122342573754 -0.0198818370291583 0.0
0.6964584006446621 0.0087681029489807 0.0
0.8049395018993988 0.0300349081784849 0.0
0.7786967369571439 -0.0220804517064142 0.0
0.8091578769412784 0.0209252026770498 0.0
0.7930988749022790 -0.0274348065020195 0.0
1.4135709654460982 -0.0100701323153532 0.0
1.4382952581989883 0.0013797143264830 0.0
1.4165219617489195 -0.0012628532842425 0.0
1.4386607304437788 0.0078331828683101 0.0
1.5790244531332691 0.0013512375866205 0.0
1.5672288044391356 -0.0107255564823361 0.0
1.3123391005190261 0.0077654980750118 0.0
1.3570675257002405 -0.0280596664094113 0.0
1.4086443170036660 0.0026599112960381 0.0
1.4165508788311658 -0.0137952733725263 0.0
0.7211175750505283 -0.0170154881790630 0.0
0.6700694356367322 0.0188897365752540 0.0
0.7228732499769637 -0.0183368072032252 0.0
0.6714934728241022 0.0204926743066090 0.0
0.5577872915409270 -0.1171017321858984 0.0
0.5620663681634982 -0.1118766970044179 0.0
1.2861231045581714 0.1187557061036209 0.0
1.2853067432467677 0.1164085461557875 0.0
1.4215505474930952 -0.0160289570971611 0.0
1.3838313898028989 -0.0404909712028316 0.0
1.3874102072870085 0.0222978448788478 0.0
1.4230223737195900 -0.0030215460304455 0.0
0.7984849269349487 -0.0653523609198103 0.0
0.7978075171413898 0.0750868158677893 0.0
1.1227787975968675 -0.1570016291110274 0.0
1.1235690422169178 -0.1536001810088178 0.0
1.1258811365978556 0.2227480152335312 0.0
1.1211314417145126 0.2238042796185856 0.0
0.8465057747435607 -0.0428507501294238 0.0
0.8066782070448936 0.0488701387429200 0.0
0.8422901985999582 -0.0382833480921451 0.0
0.8122436084264878 0.0554853948256917 0.0
1.5544158016058194 -0.0100458010103513 0.0
1.5548792680349934 -0.0197921104681155 0.0
0.6850874266030692 -0.0211252836405070 0.0
0.7028784563963858 0.0035624828790523 0.0
0.6463701368028261 0.0249663153003538 0.0
0.7318604627058679 0.0423003726480310 0.0
0.6603625900634656 0.0019748702260010 0.0
0.6653972748531890 -0.0024941625909682 0.0
1.4087406851760853 -0.2100083954374359 0.0
1.4060009732422909 -0.2011882208793512 0.0
1.2691943654081344 0.2618324954315356 0.0
1.2701009587296150 0.2451795696358450 0.0
0.4777284135661135 -0.0511695960557511 0.0
0.4860977272221877 -0.0504519410063552 0.0
0.4838707183776034 0.0524756035712386 0.0
0.4925977927515914 0.0507690816419526 0.0
1.4016668343630978 -0.0057295403331453 0.0
1.4043799747528953 -0.0031861895322978 0.0
1.4265995950362684 -0.1595789110459185 0.0
1.4423393353182008 -0.1583062390697703 0.0
1.4459144364841547 0.1765869358478513 0.0
1.4263284216890304 0.1728687883118263 0.0
0.8528913672892851 0.0395344067656312 0.0
0.7435510745173608 -0.1088167341379634 0.0
0.8383166276072089 0.0512742206487082 0.0
0.7625566984488684 -0.0922875788240714 0.0
1.3975342340475105 -0.0448355869534358 0.0
1.3694016643560254 0.0515290971282632 0.0
1.3927859241542657 -0.0371409112111834 0.0
1.3725035507144092 0.0602996757242635 0.0
1.5103788724522087 0.0014615975521005 0.0
1.5089943670313288 -0.0310672630248828 0.0
0.6468065144823768 0.0021905630521032 0.0
0.6492866444744663 0.0043887445165987 0.0
1.3903143520252390 0.0800500978669653 0.0
1.4032246844296608 0.0529102723454312 0.0
1.5196031679163402 -0.0421775538786932 0.0
1.4951228647164885 0.0460202452921360 0.0
0.6999222299543204 0.0919886372816364 0.0
0.6870342134891892 0.0997220627352088 0.0
1.4630027575601054 -0.0288746474689940 0.0
1.4142491811218660 0.0354285616549338 0.0
1.4134574396126161 -0.0493812149449018 0.0
1.4628355460715854 0.0043440279530720 0.0
1.6337733156349123 0.0199231322546694 0.0
1.6471103163609320 -0.0270697579174106 0.0
0.5029164769496320 0.0001015764563466 0.0
0.5009149873743465 0.0019128257926407 0.0
1.5291827494428638 -0.0323981800156367 0.0
1.5259879086895207 0.0318862618855512 0.0
0.9374002626732961 0.2269605481760282 0.0
0.9059086256061921 -0.2232357913197254 0.0
1.5108400618834685 -0.0157705373358034 0.0
1.5076745436452896 -0.0058397424574661 0.0
1.3097757873706597 0.0047862301305790 0.0
1.3540288517637789 -0.0291227756639719 0.0
1.3233342854493106 -0.0179923910691729 0.0
1.3280220015004609 -0.0165252488802234 0.0
1.2051955028930950 -0.1201141942196030 0.0
1.2052507980909180 -0.1200964469756398 0.0
1.4947827545120265 -0.0162733945280326 0.0
1.4448081139917823 -0.0029416841410794 0.0
1.4526860494002383 -0.0305733174807188 0.0
1.4408897555143678 0.0319121614605706 0.0
1.5022727546426020 -0.0222481886502745 0.0
1.4507105102594224 0.0031147112212279 0.0
0.4290021467669144 0.0473071843765848 0.0
0.4316760586297911 0.0441123707048055 0.0
0.4246958977674052 -0.0311740283210204 0.0
0.4175845120169815 -0.0343714508584324 0.0
1.4353863359339025 -0.3307299297770306 0.0
1.4365950560282996 -0.3339129011282629 0.0
0.3968169046227654 0.0067296013308370 0.0
0.4059338576308560 -0.0109471306209806 0.0
1.5117382911893762 0.3274670084404682 0.0
1.5131115157575121 0.3220238161228195 0.0
0.5927756025735430 0.0989677599324974 0.0
0.5936031578003436 0.0978317089521794 0.0
1.5181903483072314 0.0237936471115653 0.0
1.5218505830750655 -0.0229849191782949 0.0
1.3283790169976195 -0.0150752841837067 0.0
1.3424482598736136 0.0134295833417093 0.0
1.4600725326339810 -0.3779413962404521 0.0
1.4556874140129690 -0.3736647322728622 0.0
1.3986249414250336 0.4853707432075694 0.0
1.4083231006248318 0.4827076570423817 0.0
1.5900170948492520 0.0102381966884384 0.0
1.5873971042894413 0.0115162688153464 0.0
0.4855487653503901 0.0542731150440035 0.0
0.4640476846994271 -0.0606757746945336 0.0
0.4783427409286105 0.0584078359416864 0.0
0.4742716722245226 -0.0568993006270995 0.0
0.3852662731848824 0.0281857755667091 0.0
0.4067209807510723 0.0283406832511589 0.0
0.4199080515325326 -0.0152965211330454 0.0
0.4422542799401378 -0.0165852877793803 0.0
1.2479628770022020 -0.2047073115111517 0.0
1.2654831949027863 -0.2063345220680178 0.0
1.2753579098794636 0.2798127706719188 0.0
1.2587707950341556 0.2784712362106871 0.0
1.2073326605442292 -0.2717719567124094 0.0
1.1809326050868669 0.2659491139241351 0.0
1.4515469630217872 0.0024673006540471 0.0
1.4585267133879298 0.0160650488671233 0.0
0.5095220522054122 -0.0093271189298093 0.0
0.4840090697889474 -0.0005534298461414 0.0
0.5202999117834775 0.0144074814268179 0.0
0.4980401365793535 0.0044710296797822 0.0
1.4868048925271358 -0.0220331659398022 0.0
1.4744774853511979 0.0050087258278265 0.0
1.3346322353018583 -0.0263579331615570 0.0
1.3352097288235374 -0.0234974421750255 0.0
0.8719652076517906 0.2643643865399533 0.0
0.9351754794740033 -0.2433828005493414 0.0
1.0404123101248031 0.0747376963590723 0.0
1.0472450667964825 0.0806539088849336 0.0
1.0578393756797673 -0.0977676457127278 0.0
1.0589012788536885 -0.1002436908647377 0.0
0.6353821922405662 -0.1341402806894687 0.0
0.6496111026454390 0.1423032982206080 0.0
0.2857834079998177 -0.0243532086416650 0.0
0.2889360029936234 -0.0236541707481150 0.0
0.2951487298308150 -0.0105527055742882 0.0
0.2938224021695176 -0.0104978785544387 0.0
0.3559104531892610 -0.0116260461646396 0.0
0.3555794692893685 0.0117952675978895 0.0
1.2241005426896561 0.3285149021080951 0.0
1.1734686692115135 -0.2645201156085231 0.0
0.5058980752053903 -0.0602457936362364 0.0
0.4943827931348289 0.0720708111521326 0.0
0.5053428832482640 -0.0594761563114500 0.0
0.4953727515475758 0.0738887596325487 0.0
1.4849110161635504 0.0480277244195726 0.0
1.4958999036434355 -0.0610350904052124 0.0
0.4520490607128633 0.0758330550801377 0.0
0.5224849749569764 -0.1242766622318759 0.0
0.9601834472605211 0.0626996294330582 0.0
0.9565294285479531 0.0610084551442553 0.0
0.9843709897793785 -0.0596194576305327 0.0
0.9850900653298740 -0.0597469853863821 0.0
0.8769495664011057 0.0297237273276702 0.0
0.8774629478416690 0.0389519578631746 0.0
0.5326783687940403 0.0441627054511979 0.0
0.5072467326525726 -0.0573978445211133 0.0
0.5299203201802194 0.0426998714149174 0.0
0.5058551179709755 -0.0576515392144459 0.0
1.5444658983996642 -0.0061341693199683 0.0
1.5404768161245548 -0.0033256527350582 0.0
0.4243141107500691 -0.0721359368459367 0.0
0.4743640320392143 0.0498395153593852 0.0
0.4588364491170807 0.0611258513915737 0.0
0.4444116490945341 -0.0607939111812993 0.0
1.0119361160227789 0.0398901805509493 0.0
1.0479872145273410 0.0418367418523092 0.0
1.0789694134395056 -0.0557701472628401 0.0
1.0535611478633828 -0.0595129104964129 0.0
1.3122649920642981 0.0197583813447861 0.0
1.3100302657410954 0.0270681929957191 0.0
1.3546258858340556 -0.0674305054637360 0.0
1.3689845307591975 -0.0396020876015641 0.0
1.0583551172945511 -0.1235093699402031 0.0
1.0532379786056312 -0.1302533753836880 0.0
0.5285046569775462 -0.0014889780274100 0.0
0.5301529756164769 0.0079756141616061 0.0
0.5362149305327362 0.0041616264544817 0.0
0.5201123959257261 -0.0061526521952178 0.0