# vtk DataFile Version 3.0
LucasCarvalhoTCC Results
ASCII

DATASET POLYDATA
FIELD FieldData 1
TIME 1 1 double
2.9000000000000004

POINTS 494 float
0.0 0.0 0.0
8.0 0.0 0.0
8.0 1.0 0.0
0.0 1.0 0.0
4.0 0.0 0.0
4.0 1.0 0.0
4.0 0.35 0.0
4.0 0.65 0.0
0.2010296266416496 1.0 0.0
0.3986915135488555 1.0 0.0
0.5930420631591132 1.0 0.0
0.7841367769318693 1.0 0.0
0.9720301907499852 1.0 0.0
1.156775924166146 1.0 0.0
1.33842670621592 1.0 0.0
1.517034389070868 1.0 0.0
1.69264994674003 1.0 0.0
1.865323550794866 1.0 0.0
2.035104414722059 1.0 0.0
2.202040983487818 1.0 0.0
2.366180993436638 1.0 0.0
2.527571282866703 1.0 0.0
2.686257831390245 1.0 0.0
2.842286022819771 1.0 0.0
2.995700353514032 1.0 0.0
3.146544637914273 1.0 0.0
3.294861880721452 1.0 0.0
3.440694398353104 1.0 0.0
3.58408394609007 1.0 0.0
3.725071294102791 1.0 0.0
3.863696788294668 1.0 0.0
4.136303211705004 1.0 0.0
4.274928705896546 1.0 0.0
4.415916053908917 1.0 0.0
4.55930560164552 1.0 0.0
4.7051381192768 1.0 0.0
4.853455362083593 1.0 0.0
5.004299646483437 1.0 0.0
5.157713977177285 1.0 0.0
5.313742168606385 1.0 0.0
5.472428717129489 1.0 0.0
5.6338190065591 1.0 0.0
5.797959016507455 1.0 0.0
5.96489558527273 1.0 0.0
6.134676449200184 1.0 0.0
6.307350053255487 1.0 0.0
6.482965610925135 1.0 0.0
6.661573293780584 1.0 0.0
6.843224075830887 1.0 0.0
7.027969809247587 1.0 0.0
7.215863223066262 1.0 0.0
7.4069579368396 1.0 0.0
7.601308486450315 1.0 0.0
7.798970373357896 1.0 0.0
8.0 0.7999999999999996 0.0
8.0 0.6000000000013874 0.0
8.0 0.4000000000016649 0.0
8.0 0.2000000000008324 0.0
7.798970373357898 0.0 0.0
7.601308486450317 0.0 0.0
7.406957936839601 0.0 0.0
7.215863223066265 0.0 0.0
7.02796980924759 0.0 0.0
6.843224075830888 0.0 0.0
6.661573293780592 0.0 0.0
6.482965610925139 0.0 0.0
6.307350053255492 0.0 0.0
6.134676449200188 0.0 0.0
5.964895585272735 0.0 0.0
5.797959016507459 0.0 0.0
5.633819006559103 0.0 0.0
5.472428717129493 0.0 0.0
5.313742168606389 0.0 0.0
5.157713977177288 0.0 0.0
5.004299646483441 0.0 0.0
4.853455362083597 0.0 0.0
4.705138119276803 0.0 0.0
4.559305601645523 0.0 0.0
4.415916053908919 0.0 0.0
4.274928705896549 0.0 0.0
4.136303211705007 0.0 0.0
3.863696788294383 0.0 0.0
3.725071294102209 0.0 0.0
3.584083946089184 0.0 0.0
3.440694398352564 0.0 0.0
3.29486188072223 0.0 0.0
3.146544637916415 0.0 0.0
2.995700353517581 0.0 0.0
2.842286022824779 0.0 0.0
2.68625783139676 0.0 0.0
2.527571282874774 0.0 0.0
2.366180993446318 0.0 0.0
2.202040983499156 0.0 0.0
2.035104414735112 0.0 0.0
1.865323550807426 0.0 0.0
1.692649946751479 0.0 0.0
1.517034389081164 0.0 0.0
1.338426706225015 0.0 0.0
1.156775924174005 0.0 0.0
0.9720301907565596 0.0 0.0
0.784136776937109 0.0 0.0
0.5930420631629705 0.0 0.0
0.3986915135514271 0.0 0.0
0.2010296266429896 0.0 0.0
0.0 0.199999999999558 0.0
0.0 0.3999999999989746 0.0
0.0 0.5999999999989464 0.0
0.0 0.7999999999994731 0.0
4.065082561150232 0.3648546699507293 0.0
4.117274722996153 0.4064765305061043 0.0
4.146239186965635 0.4666218605127571 0.0
4.146239186588658 0.5333781411388893 0.0
4.117274722147235 0.5935234705584039 0.0
4.065082560620447 0.6351453303044018 0.0
3.934917439190226 0.6351453302132268 0.0
3.882725277520537 0.5935234701418048 0.0
3.853760813071839 0.5333781396514286 0.0
3.853760813263242 0.4666218595099774 0.0
3.882725277782338 0.4064765295299076 0.0
3.934917439246251 0.3648546697597932 0.0
3.348071016817302 0.5037366844559412 0.0
4.65817771841185 0.4813089492125461 0.0
5.148432135339639 0.5000000000000013 0.0
2.851567863014233 0.5000000000000465 0.0
4.406326506211093 0.3072680842959042 0.0
3.575604791543614 0.6706702532911111 0.0
4.424395205595821 0.6706702556565258 0.0
3.593673497058965 0.3072680820819204 0.0
5.648652107845511 0.5000000000000006 0.0
2.351347890458042 0.4999999999998563 0.0
1.851146954963573 0.4999999999998219 0.0
6.148853043290459 0.4999999999999989 0.0
6.65089532386231 0.5241211434250735 0.0
1.349104674975677 0.4758788558671475 0.0
7.150713697794147 0.4858064203922342 0.0
0.8492863006035025 0.4858064203396458 0.0
4.216343713145164 0.2287135668575249 0.0
3.7836562881134 0.7712864338025908 0.0
4.346988371127422 0.5000000019594898 0.0
4.213775907987267 0.7756803165215952 0.0
3.653011628408684 0.4999999990051173 0.0
3.786224091202296 0.224319683220954 0.0
7.572712389010231 0.5763628491757339 0.0
0.4272876103144935 0.5763628498169726 0.0
4.881741322202974 0.3185523670790996 0.0
3.118258676783759 0.6814476337404539 0.0
3.126854924363118 0.2792890251323842 0.0
4.873145074373641 0.7207109754187309 0.0
5.398381996912613 0.291094588046412 0.0
5.396092528392672 0.7230702977293901 0.0
2.603907471650227 0.7230702981371074 0.0
2.601618001742297 0.2910945873520305 0.0
4.065645388412852 0.1903894420877926 0.0
3.934354612281609 0.8096105573695707 0.0
4.268393145079946 0.6292513280674802 0.0
3.731606853978594 0.3707486723017213 0.0
4.265062587797852 0.3723525870906427 0.0
3.734937412407246 0.6276474138958879 0.0
5.89991820844496 0.720584760457478 0.0
5.899661142431216 0.2940789491313893 0.0
2.100338856207466 0.7059210507243335 0.0
2.100081790085733 0.2794152396968363 0.0
4.648216390708278 0.2460745758417431 0.0
3.350865525112209 0.7519279174007294 0.0
3.351783614314077 0.2460745727859678 0.0
4.649134469923633 0.7519279206208029 0.0
6.386000070083336 0.2800687217561524 0.0
6.399946740387701 0.7091877900019353 0.0
1.613999929083956 0.7199312783619409 0.0
1.600053258667474 0.2908122092889953 0.0
1.099018086220021 0.3101534564461602 0.0
1.099018086220183 0.6898465435530818 0.0
6.900981912171285 0.3101534566801202 0.0
6.900981912171287 0.689846543319878 0.0
3.934891793257755 0.2336799984692873 0.0
4.065108206439434 0.7663200008196746 0.0
5.133077706310633 0.254681732561614 0.0
5.131620328745691 0.7509194919064351 0.0
2.866922291796803 0.7453182673725732 0.0
2.868379670398546 0.2490805081265555 0.0
0.5973224633027379 0.3123440263675117 0.0
7.402677535116692 0.3123440263206204 0.0
7.70928508668797 0.2984218335093966 0.0
0.2907149122204558 0.2984218350042115 0.0
2.359042531710287 0.2526358364218651 0.0
2.362552667743482 0.7498876177132479 0.0
5.640957467742433 0.2526358368965552 0.0
5.637447332034727 0.7498876177447886 0.0
7.330771635020911 0.7204300868765696 0.0
0.6692283641678903 0.7204300870263377 0.0
6.141991504218947 0.7500064293114952 0.0
6.143214654121697 0.2541610692540839 0.0
1.858008494097047 0.2499935706645152 0.0
1.856785344746094 0.7458389307817799 0.0
1.360037479834015 0.7503851535261052 0.0
1.363297687800482 0.2332108063209677 0.0
6.636702311691573 0.7667891933666813 0.0
6.639962519949044 0.2496148464378299 0.0
7.14328150074831 0.2292696686424185 0.0
0.8567184978980538 0.2292696684503961 0.0
4.845173759433459 0.5000000012080886 0.0
3.15482623877425 0.4999999993865263 0.0
3.514470413944982 0.5755907957035395 0.0
4.485529584365944 0.5755907996488695 0.0
4.350214515329574 0.8947484376274254 0.0
3.64978548377064 0.1052515623441257 0.0
4.356280753270322 0.1397878825788729 0.0
3.643719248073251 0.8602121180766233 0.0
4.157657982820168 0.3023031440803671 0.0
3.842342017851872 0.6976968563131654 0.0
4.149794964153143 0.6947625877680722 0.0
3.850205035403508 0.3052374120341299 0.0
4.252863769441745 0.5000000013253333 0.0
3.747136230269581 0.4999999993774377 0.0
2.66150837620265 0.4835883053501762 0.0
5.338491622258749 0.4835883052760253 0.0
7.732076714471282 0.7613785341653052 0.0
0.267923285219987 0.7613785345749642 0.0
3.482582425594127 0.3988584940714734 0.0
4.517417574829351 0.3988584973195787 0.0
7.120961454429095 0.7969630876933931 0.0
0.8790385446795201 0.7969630878928393 0.0
4.524178509919695 0.1937066442020419 0.0
3.472973035782958 0.803602443762734 0.0
4.527026959328886 0.8036024455277256 0.0
3.475821495314308 0.1937066425220846 0.0
5.834485749168302 0.4775259269822466 0.0
2.16551424934095 0.5224740729963462 0.0
4.803832126993392 0.8343163881584211 0.0
3.196167871756218 0.1656836120733276 0.0
3.196167870279283 0.834316388182051 0.0
4.803832130306974 0.1656836112805605 0.0
1.646902821176459 0.5088844228822333 0.0
6.35309717778631 0.4911155766888507 0.0
4.128745436683365 0.8608937921704661 0.0
3.871254562700506 0.1391062074145501 0.0
7.783519314041498 0.4824599318584197 0.0
0.2164806854160975 0.4824599323519634 0.0
3.981228286637499 0.1341601386487245 0.0
4.018771713398118 0.8658398609794804 0.0
4.757705393330306 0.6277793253200102 0.0
3.245404476813698 0.3720431195654205 0.0
3.262406961538709 0.609092082228193 0.0
4.738552632749474 0.3854106153034425 0.0
4.980576921401999 0.1828043249223437 0.0
3.019423077460087 0.8171956749482756 0.0
4.975386875116307 0.8288560892267683 0.0
3.024613123995747 0.1711439108946455 0.0
7.537862127958827 0.7914398748884439 0.0
0.46213787149577 0.7914398749623154 0.0
4.150965283491015 0.1232311208167031 0.0
3.849034718225983 0.8767688792466098 0.0
0.6330166515036239 0.5212993800799176 0.0
7.366983347335347 0.5212993798709434 0.0
5.001451172914062 0.4591396125040952 0.0
2.998548825585332 0.5408603877155073 0.0
5.250532135494552 0.1623854812497458 0.0
5.24999687257574 0.8404382486850067 0.0
2.749794930508214 0.8396380739052673 0.0
2.749676059914328 0.161585306286623 0.0
1.150631951549359 0.5017906253149568 0.0
6.85747267660715 0.5137706215776152 0.0
2.938770240933895 0.3859183074771494 0.0
5.061229757952985 0.6140816927005173 0.0
5.521883200863776 0.8371838481144578 0.0
5.520780843451154 0.1567733764659754 0.0
2.479219155991939 0.1567733759623464 0.0
2.478116798894765 0.8371838481096507 0.0
2.208224060227917 0.1725929992863016 0.0
2.214655190115911 0.821187355218689 0.0
5.791775938918927 0.8274070011383262 0.0
5.785558009721889 0.1789659155514431 0.0
5.243140500145841 0.3651007420679131 0.0
5.247758683472709 0.6318228659349833 0.0
2.748336099792684 0.6332079670712092 0.0
2.766145970608876 0.3583112578457802 0.0
2.500794992947401 0.4517155340697119 0.0
5.499205006433885 0.4517155344186723 0.0
3.472119223331378 0.69283875816516 0.0
4.527880773131323 0.6928387614752662 0.0
2.445947440949104 0.6396216022327238 0.0
5.554052558509333 0.6396216019605415 0.0
[...]
POINT_DATA 494

VECTORS Velocity float
0.0000000000000000 0.0000000000000000 0.0
0.8198847407146751 -0.1380958351583812 0.0
0.0000000000000000 0.0000000000000000 0.0
0.0000000000000000 0.0000000000000000 0.0
0.0000000000000000 0.0000000000000000 0.0
0.0000000000000000 0.0000000000000000 0.0
0.0000000000000000 0.0000000000000000 0.0
0.0000000000000000 0.0000000000000000 0.0
0.0000000000000000 0.0000000000000000 0.0
0.0000000000000000 0.0000000000000000 0.0
0.0000000000000000 0.0000000000000000 0.0
0.0000000000000000 0.0000000000000000 0.0
0.0000000000000000 0.0000000000000000 0.0
0.0000000000000000 0.0000000000000000 0.0
0.0000000000000000 0.0000000000000000 0.0
0.0000000000000000 0.0000000000000000 0.0
0.0000000000000000 0.0000000000000000 0.0
0.0000000000000000 0.0000000000000000 0.0
0.0000000000000000 0.0000000000000000 0.0
0.0000000000000000 0.0000000000000000 0.0
0.0000000000000000 0.0000000000000000 0.0
0.0000000000000000 0.0000000000000000 0.0
0.0000000000000000 0.0000000000000000 0.0
0.0000000000000000 0.0000000000000000 0.0
0.0000000000000000 0.0000000000000000 0.0
0.0000000000000000 0.0000000000000000 0.0
0.0000000000000000 0.0000000000000000 0.0
0.0000000000000000 0.0000000000000000 0.0
0.0000000000000000 0.0000000000000000 0.0
0.0000000000000000 0.0000000000000000 0.0
0.0000000000000000 0.0000000000000000 0.0
0.0000000000000000 0.0000000000000000 0.0
0.0000000000000000 0.0000000000000000 0.0
0.0000000000000000 0.0000000000000000 0.0
0.0000000000000000 0.0000000000000000 0.0
0.0000000000000000 0.0000000000000000 0.0
0.0000000000000000 0.0000000000000000 0.0
0.0000000000000000 0.0000000000000000 0.0
0.0000000000000000 0.0000000000000000 0.0
0.0000000000000000 0.0000000000000000 0.0
0.0000000000000000 0.0000000000000000 0.0
0.0000000000000000 0.0000000000000000 0.0
0.0000000000000000 0.0000000000000000 0.0
0.0000000000000000 0.0000000000000000 0.0
0.0000000000000000 0.0000000000000000 0.0
0.0000000000000000 0.0000000000000000 0.0
0.0000000000000000 0.0000000000000000 0.0
0.0000000000000000 0.0000000000000000 0.0
0.0000000000000000 0.0000000000000000 0.0
0.0000000000000000 0.0000000000000000 0.0
0.0000000000000000 0.0000000000000000 0.0
0.0000000000000000 0.0000000000000000 0.0
0.0000000000000000 0.0000000000000000 0.0
0.0000000000000000 0.0000000000000000 0.0
1.0771053195956226 0.5441806725598584 0.0
0.9956052004482911 0.1374529600355749 0.0
0.9602479761362372 -0.0882015577662385 0.0
1.0633896125651756 -0.4540710383804489 0.0
0.0000000000000000 0.0000000000000000 0.0
0.0000000000000000 0.0000000000000000 0.0
0.0000000000000000 0.0000000000000000 0.0
0.0000000000000000 0.0000000000000000 0.0
0.0000000000000000 0.0000000000000000 0.0
0.0000000000000000 0.0000000000000000 0.0
0.0000000000000000 0.0000000000000000 0.0
0.0000000000000000 0.0000000000000000 0.0
0.0000000000000000 0.0000000000000000 0.0
0.0000000000000000 0.0000000000000000 0.0
0.0000000000000000 0.0000000000000000 0.0
0.0000000000000000 0.0000000000000000 0.0
0.0000000000000000 0.0000000000000000 0.0
0.0000000000000000 0.0000000000000000 0.0
0.0000000000000000 0.0000000000000000 0.0
0.0000000000000000 0.0000000000000000 0.0
0.0000000000000000 0.0000000000000000 0.0
0.0000000000000000 0.0000000000000000 0.0
0.0000000000000000 0.0000000000000000 0.0
0.0000000000000000 0.0000000000000000 0.0
0.0000000000000000 0.0000000000000000 0.0
0.0000000000000000 0.0000000000000000 0.0
0.0000000000000000 0.0000000000000000 0.0
0.0000000000000000 0.0000000000000000 0.0
0.0000000000000000 0.0000000000000000 0.0
0.0000000000000000 0.0000000000000000 0.0
0.0000000000000000 0.0000000000000000 0.0
0.0000000000000000 0.0000000000000000 0.0
0.0000000000000000 0.0000000000000000 0.0
0.0000000000000000 0.0000000000000000 0.0
0.0000000000000000 0.0000000000000000 0.0
0.0000000000000000 0.0000000000000000 0.0
0.0000000000000000 0.0000000000000000 0.0
0.0000000000000000 0.0000000000000000 0.0
0.0000000000000000 0.0000000000000000 0.0
0.0000000000000000 0.0000000000000000 0.0
0.0000000000000000 0.0000000000000000 0.0
0.0000000000000000 0.0000000000000000 0.0
0.0000000000000000 0.0000000000000000 0.0
0.0000000000000000 0.0000000000000000 0.0
0.0000000000000000 0.0000000000000000 0.0
0.0000000000000000 0.0000000000000000 0.0
0.0000000000000000 0.0000000000000000 0.0
0.0000000000000000 0.0000000000000000 0.0
0.0000000000000000 0.0000000000000000 0.0
0.0000000000000000 0.0000000000000000 0.0
1.0000000000000000 0.0000000000000000 0.0
1.0000000000000000 0.0000000000000000 0.0
1.0000000000000000 0.0000000000000000 0.0
1.0000000000000000 0.0000000000000000 0.0
0.0000000000000000 0.0000000000000000 0.0
0.0000000000000000 0.0000000000000000 0.0
0.0000000000000000 0.0000000000000000 0.0
0.0000000000000000 0.0000000000000000 0.0
0.0000000000000000 0.0000000000000000 0.0
0.0000000000000000 0.0000000000000000 0.0
0.0000000000000000 0.0000000000000000 0.0
0.0000000000000000 0.0000000000000000 0.0
0.0000000000000000 0.0000000000000000 0.0
0.0000000000000000 0.0000000000000000 0.0
0.0000000000000000 0.0000000000000000 0.0
0.0000000000000000 0.0000000000000000 0.0
1.5896293822607896 -0.0109625613195662 0.0
1.5922650104711265 0.0143101751557793 0.0
1.6351409550089056 -0.0115284070685121 0.0
1.6322504775391546 -0.0184683367789667 0.0
1.3460793971198139 0.0797179962608914 0.0
1.3687356467030865 0.0622922354587501 0.0
1.4090251918922367 -0.1081864451115260 0.0
1.3873084993202203 -0.1293087901375067 0.0
1.6106755216088522 0.0008666712928018 0.0
1.6101170788200192 -0.0071175706387062 0.0
1.5572601082726782 0.0052456298648340 0.0
1.5563217249198562 -0.0007470610624102 0.0
1.5727799388060384 -0.0317937824653656 0.0
1.5727930607089737 0.0164108020999612 0.0
1.6558234056621379 0.0095010279510728 0.0
1.6524497820811790 -0.0167300118773393 0.0
1.3216528743428040 0.3156068329908278 0.0
1.3210742024613489 0.3093966824672306 0.0
1.3554848114711757 0.0226859426578348 0.0
1.3557442065391416 -0.2301500055869592 0.0
1.3550798331465295 0.0173596309828175 0.0
1.3557508143338399 -0.2343445675433715 0.0
1.5492087358966520 0.0144492335388851 0.0
1.5328124103085321 -0.0342989969035617 0.0
1.3405311884910014 0.0063886893453528 0.0
1.3420916630146755 0.0059290298111431 0.0
1.2658715213920217 -0.0000395722235959 0.0
1.2577399477627369 -0.0017286171900067 0.0
1.3048152118503840 -0.0062469867435627 0.0
1.2120888371925600 -0.0147175567193835 0.0
1.1833667248704283 0.0084831092599988 0.0
1.3262143281876508 0.0030574545823605 0.0
1.4606506679200717 0.1357346647029064 0.0
1.4610466394101824 0.1336234122009490 0.0
1.4320869465505990 -0.2716792098377558 0.0
1.4378301133695244 -0.2759527371514398 0.0
1.4415347624161019 0.3520929717943644 0.0
1.4364291744607813 0.3501573969967914 0.0
1.1813384168828081 -0.0289297600710609 0.0
1.3020392011560165 -0.0076202628135262 0.0
1.2932510462706870 -0.0164815989966649 0.0
1.1860727662156025 -0.0309524339423206 0.0
1.0820542982223409 -0.0632317004778580 0.0
1.0871141209694777 -0.0533427056269303 0.0
1.0995258699942485 0.0392536857218113 0.0
1.1081544269735271 0.0252414393664361 0.0
1.2552214894223768 0.0046538134647402 0.0
1.2405875562042121 -0.0202532887743580 0.0
1.2443918222863048 0.0186132083063360 0.0
1.2504156849168158 -0.0023552700666065 0.0
1.4402485035594572 -0.0307620066456958 0.0
1.3208542938910663 0.0531344469801599 0.0
1.4450923844949239 0.0335323654367793 0.0
1.3128269231754517 -0.0468468732245252 0.0
1.5787932083820690 -0.2273044706777924 0.0
1.5784156988319731 -0.2267311732779286 0.0
1.1569630276870526 -0.0534026886639027 0.0
1.1810334810390120 0.0574901484409982 0.0
1.1446434249080955 -0.0571786738792060 0.0
1.1894071928220518 0.0455296926281015 0.0
1.4290722206221453 0.0321881827301801 0.0
1.4397401653930169 -0.0296748169451010 0.0
1.2949170985238143 -0.1606817356802559 0.0
1.2811458053732003 0.1934432887177698 0.0
1.1906076134309920 0.0504413204033900 0.0
1.1395909976786158 -0.0047354293357052 0.0
1.1868664916525735 -0.0374664248829087 0.0
1.1547645077540518 0.0309878605077481 0.0
1.2893462022365141 0.0085392056295663 0.0
1.2963423967757299 -0.0146727363647530 0.0
1.1567272099627186 0.0378100693513067 0.0
1.2184028072329764 -0.0662904755484733 0.0
1.1592895609730480 0.0408427190127982 0.0
1.2154915737758587 -0.0648558216704773 0.0
1.1696577819653022 0.0694291854281105 0.0
1.1449535741875239 -0.0398020813630953 0.0
1.1000747180770261 -0.0579325440601205 0.0
1.2052114813227319 0.0510301811089327 0.0
1.1030941451831167 -0.0235444735079741 0.0
1.0969618259370577 0.0191231101425612 0.0
1.6071233986687798 0.0090317126776463 0.0
1.6091884405378789 -0.0002232098222866 0.0
1.4794024205494269 0.0336435120955209 0.0
1.4976664906374795 -0.0677741592721447 0.0
0.4780564069485389 -0.0132266650680671 0.0
0.4603468962677508 -0.0150064867391576 0.0
0.5760084922075152 0.1061650693467514 0.0
0.5950645133127950 0.1054252755036202 0.0
1.4640887202508466 0.4436034767556432 0.0
1.4593941823164369 0.4404362115810060 0.0
1.5431314530640710 -0.3562488845602840 0.0
1.5451982074696526 -0.3574812371239243 0.0
0.9863837578737361 0.0321361882751146 0.0
0.9870113650236658 0.0430721032872713 0.0
1.6112785562883727 0.0313177092400391 0.0
1.6036900994935288 -0.0431642274702061 0.0
1.1589126414942228 0.1959382561249902 0.0
1.1962932331803300 -0.2745244956193155 0.0
1.5200497920606293 -0.0540853291505981 0.0
1.4966086438784367 0.0130871830050629 0.0
0.7370377939236579 -0.0071155189547752 0.0
0.7586170103979504 0.0057326601531383 0.0
0.9032728650734743 -0.0165555175336373 0.0
0.9182067456176788 -0.0195703694910918 0.0
0.9334190012789791 0.0040849358436435 0.0
0.9211032719039243 0.0038670713457942 0.0
1.5774601931162733 -0.0260369096935934 0.0
1.5773343355610445 -0.0547399031405895 0.0
0.6678016236176331 -0.0846838666269318 0.0
0.6666140490586595 -0.0856826334998785 0.0
0.7146528756356987 0.0653046650643302 0.0
0.7138224031647262 0.0642080105605262 0.0
1.4959821153923871 0.0479958023883469 0.0
1.4965068434428679 0.0322875957685739 0.0
0.9005690364907171 -0.1234510002647950 0.0
0.9012033697767001 -0.1265837265169562 0.0
1.3577187769522536 0.0007916923471940 0.0
1.2764733325034467 0.0143851864408356 0.0
1.0036037774588449 -0.0939620390646498 0.0
1.0039969783663596 -0.0938255486921863 0.0
1.5134620013632150 -0.0293347707752962 0.0
1.5189148951685656 -0.0321291339109896 0.0
1.4816123256901859 0.0403897219870367 0.0
1.4854189791290437 0.0474400467369864 0.0
0.7523773900667817 -0.0073395884268042 0.0
0.7555938822023229 -0.0061718581624698 0.0
0.7065740027075726 0.0207930677951502 0.0
0.6964582644176684 0.0183455251268827 0.0
0.8171188703445663 0.0370239667649426 0.0
0.8404523847128434 -0.0646648619487777 0.0
0.7467960048294715 0.0893676522297410 0.0
0.7494220044650348 0.0864934975573889 0.0
1.5780749767231694 -0.0108029138561862 0.0
1.5880966457728971 0.0056877048093680 0.0
1.5899906482248984 -0.0077704887011558 0.0
1.5908164393759212 -0.0072910747989946 0.0
0.7028177720197151 -0.0029896083134972 0.0
0.7270964351277613 0.0260868297214694 0.0
0.7075934868166831 -0.0128783173840387 0.0
0.7054596686792287 0.0184464415084494 0.0
1.6265047417944944 -0.0018382973617545 0.0
1.6297356834784262 -0.0444117809659211 0.0
1.5192133702927084 -0.0121460323459312 0.0
1.5204535610643861 -0.0147668415324683 0.0
0.7152987057570301 -0.0105633133037689 0.0
0.6385665180899379 0.0177689792989087 0.0
0.6508756634266617 -0.0196787303993559 0.0
0.6972536819785259 0.0088476790175590 0.0
0.8054078682438651 0.0303601539022526 0.0
0.7790383604068583 -0.0217069427461501 0.0
0.8097144420193051 0.0209914366849097 0.0
0.7932424707084205 -0.0273186623447865 0.0
1.4134060777591053 -0.0094397828248923 0.0
1.4378325356672830 0.0010409232295189 0.0
1.4166118039602611 -0.0014155736508380 0.0
1.4378908707857232 0.0066852211456589 0.0
1.5782134891356889 0.0018132082893675 0.0
1.5666658747341278 -0.0105631488098175 0.0
1.3134333931273312 0.0087174784726118 0.0
1.3568333479153343 -0.0289734894602806 0.0
1.4088443464106473 0.0031098484599177 0.0
1.4163824117804626 -0.0134979218588858 0.0
0.7218932945041934 -0.0170140278928644 0.0
0.6698928566016282 0.0190474875099317 0.0
0.7233757048638880 -0.0184159281078999 0.0
0.6715228484833417 0.0205278207286516 0.0
0.5598545359609360 -0.1163358548737111 0.0
0.5639662431784060 -0.1111867962630764 0.0
1.2863618919749737 0.1180017092937592 0.0
1.2855135481107616 0.1156815918207539 0.0
1.4212692179390214 -0.0152331937185953 0.0
1.3835799666637438 -0.0396423421389475 0.0
1.3873534547003636 0.0224435521788241 0.0
1.4225465344490344 -0.0027697336395859 0.0
0.7984629261508676 -0.0652462305097974 0.0
0.7979446321794346 0.0749790178957108 0.0
1.1203165775942274 -0.1547465244334543 0.0
1.1208960709308835 -0.1509330450280074 0.0
1.1243335981647615 0.2192445161069660 0.0
1.1196364943150103 0.2205886207209669 0.0
0.8463864375353660 -0.0427813470948376 0.0
0.8071777228422911 0.0489545962153808 0.0
0.8420510271901556 -0.0384645432907499 0.0
0.8128029205626072 0.0552400194936104 0.0
1.5538347015575245 -0.0100431892892395 0.0
1.5542059251441533 -0.0193355029533430 0.0
0.6849984666240083 -0.0210262809827046 0.0
0.7032912513649194 0.0036042046116357 0.0
0.6469268261584149 0.0248759861473043 0.0
0.7316279159374426 0.0422110381624137 0.0
0.6606955232313623 0.0018924212093245 0.0
0.6655821015226779 -0.0024100540699524 0.0
1.4092478411737237 -0.2068167138268386 0.0
1.4062438179779206 -0.1985955339436299 0.0
1.2719911003604008 0.2585635866899458 0.0
1.2725900954270917 0.2424173030061346 0.0
0.4815451186700201 -0.0512229891579360 0.0
0.4894475283976758 -0.0505010534828317 0.0
0.4880514633502216 0.0523559586740140 0.0
0.4962044173728253 0.0506313804218194 0.0
1.4017922827865574 -0.0058210124239157 0.0
1.4047347625742792 -0.0031741554536423 0.0
1.4207364923911194 -0.1574717693789476 0.0
1.4357251774526212 -0.1560890327677239 0.0
1.4422706191277841 0.1733205637160464 0.0
1.4233264530403968 0.1700744938822969 0.0
0.8526551409949895 0.0395782926388334 0.0
0.7441857484846659 -0.1087558817977089 0.0
0.8385426700465296 0.0510069315257207 0.0
0.7626638837189360 -0.0925278248061593 0.0
1.3970817486811955 -0.0447365536885222 0.0
1.3695266482358548 0.0514520071521153 0.0
1.3923169515224187 -0.0375638672443292 0.0
1.3727119100669258 0.0597041260147024 0.0
1.5101644513715371 0.0007280717192412 0.0
1.5088042322126094 -0.0307759117498574 0.0
0.6468519668145810 0.0020481678844844 0.0
0.6494804585505898 0.0045378766524087 0.0
1.3902518114611704 0.0794592824619527 0.0
1.4027373275825266 0.0530360797399019 0.0
1.5195053750984315 -0.0419636977942667 0.0
1.4951868654205340 0.0457930099261484 0.0
0.7023710818071116 0.0906762454307128 0.0
0.6896904592289506 0.0982428421452406 0.0
1.4625827127005238 -0.0287960812644284 0.0
1.4143984374313932 0.0354658103881560 0.0
1.4138192398076821 -0.0495719884614080 0.0
1.4622812264623559 0.0042506302325073 0.0
1.6333256028488670 0.0193052357334076 0.0
1.6466905264372520 -0.0264027643533387 0.0
0.5032135276781650 0.0002035613903484 0.0
0.5012756360383882 0.0018239088056838 0.0
1.5288979236086537 -0.0318344865613208 0.0
1.5258846169152045 0.0313829601882358 0.0
0.9374149931047372 0.2269545202076469 0.0
0.9058357810118559 -0.2232689507905988 0.0
1.5004298766676072 -0.0154507960101937 0.0
1.4980878857422277 -0.0052777614118745 0.0
1.3116841035848013 0.0057269335572665 0.0
1.3546596221870910 -0.0300001124566285 0.0
1.3234204600389139 -0.0167886797930512 0.0
1.3277589586681016 -0.0159124802148497 0.0
1.2050566658514437 -0.1191036703362189 0.0
1.2051091813948696 -0.1191475949134330 0.0
1.4899904353348292 -0.0175683987096256 0.0
1.4408106711756965 -0.0001439086178150 0.0
1.4526307962886520 -0.0305087319399071 0.0
1.4410296682079651 0.0318258231658711 0.0
1.4974720771950745 -0.0231983757942677 0.0
1.4469351432523290 0.0055081771201307 0.0
0.4298293924077032 0.0477628375549821 0.0
0.4324653624516059 0.0444084429317697 0.0
0.4254523163658328 -0.0315556159960159 0.0
0.4183982565810269 -0.0348790420599301 0.0
1.4355330482910811 -0.3281163809114765 0.0
1.4367361701203860 -0.3310713189788929 0.0
0.3968647842481269 0.0067156433490870 0.0
0.4058703003505461 -0.0109197966547339 0.0
1.5122424556247533 0.3251074973677154 0.0
1.5135989807004193 0.3198015538554823 0.0
0.5925623991249394 0.0986528839868774 0.0
0.5934152845058185 0.0975395741290789 0.0
1.5180594415635564 0.0236100491731424 0.0
1.5215149931636807 -0.0227693830183352 0.0
1.3282913013259194 -0.0150267574890607 0.0
1.3418509976055901 0.0139043020928621 0.0
1.4586438108933042 -0.3725441965992295 0.0
1.4543818335922163 -0.3689326043885617 0.0
1.3981404465036582 0.4809979094906716 0.0
1.4077860468094514 0.4779688943735999 0.0
1.5872926903615439 0.0091676145255082 0.0
1.5850818885415572 0.0097976913454868 0.0
0.4857688459777266 0.0544809336146236 0.0
0.4645186725122557 -0.0606291285127952 0.0
0.4787348303912204 0.0585131198747342 0.0
0.4745171185304926 -0.0569360282804791 0.0
0.3888580499159905 0.0279307855790020 0.0
0.4099618799543254 0.0281094240817282 0.0
0.4242495856778373 -0.0151795901043589 0.0
0.4461021727554363 -0.0164958228532690 0.0
1.2416280111795484 -0.2025383541718603 0.0
1.2587602549018346 -0.2036559539600877 0.0
1.2702010028641211 0.2757106701836966 0.0
1.2539472177932145 0.2748803058212101 0.0
1.2072225701520687 -0.2718997320617432 0.0
1.1809326648496208 0.2659331594944393 0.0
1.4508758414498018 0.0031467730010297 0.0
1.4577597049994648 0.0157218156385598 0.0
0.5098055045972004 -0.0092608845424367 0.0
0.4846873547475462 -0.0005386946601037 0.0
0.5201158764906075 0.0142916882420281 0.0
0.4982502132478054 0.0044304763402394 0.0
1.4860562400554034 -0.0211274930268010 0.0
1.4739863342081008 0.0051378293927746 0.0
1.3339081862598536 -0.0259859190939343 0.0
1.3348269785535090 -0.0233986139909229 0.0
0.8720688338841261 0.2643310928880848 0.0
0.9351763031316064 -0.2433790374660132 0.0
1.0424756747472019 0.0766141198430889 0.0
1.0485885051061796 0.0823980055805143 0.0
1.0604712164327750 -0.0999390571098473 0.0
1.0607221870793058 -0.1021346910244392 0.0
0.6353009941935951 -0.1341119277544757 0.0
0.6496336940988641 0.1422652774176783 0.0
0.2872623412593796 -0.0247811944039651 0.0
0.2902060958755058 -0.0239845128087224 0.0
0.2963765866998084 -0.0101872863390073 0.0
0.2952461869382043 -0.0100783254279304 0.0
0.3560954062547172 -0.0116522467365714 0.0
0.3558504562701095 0.0118195456577677 0.0
1.2241918036007293 0.3283498418634460 0.0
1.1734613933554525 -0.2645189380422550 0.0
0.5058981837284240 -0.0602302292735960 0.0
0.4947190228763810 0.0720895892681786 0.0
0.5050939492180390 -0.0594543153567961 0.0
0.4959177270628883 0.0738816495280631 0.0
1.4848883186589241 0.0481688455644205 0.0
1.4956362132597285 -0.0611619759742737 0.0
0.4521488788495915 0.0758330945738536 0.0
0.5224893779251425 -0.1242933594846498 0.0
0.9596605372427920 0.0612283514194667 0.0
0.9559975100317576 0.0595807492044291 0.0
0.9831027633446608 -0.0580733748344840 0.0
0.9837634397456094 -0.0580806047070760 0.0
0.8758728122803850 0.0286690737233276 0.0
0.8763579634807271 0.0380840829979093 0.0
0.5327899742609716 0.0442474484273549 0.0
0.5076910144847679 -0.0574903624082134 0.0
0.5300035202937911 0.0428702122857918 0.0
0.5064035648079021 -0.0576823326857985 0.0
1.5438580395216082 -0.0060400848417266 0.0
1.5402356931098102 -0.0031915521703830 0.0
0.4247832804198105 -0.0721948556095378 0.0
0.4742421923877402 0.0498299647646189 0.0
0.4591509924383654 0.0610960653011296 0.0
0.4443880310907359 -0.0608110586958988 0.0
1.0176869258685364 0.0383217047906510 0.0
1.0528108539027456 0.0406427859354320 0.0
1.0834996397090848 -0.0550596332145742 0.0
1.0591910947891918 -0.0584523230010428 0.0
1.3127941349788144 0.0181305740021627 0.0
1.3101792784238238 0.0258656019124985 0.0
1.3549411436214045 -0.0672880119311393 0.0
1.3687234500503569 -0.0400057791819667 0.0
1.0626051536208299 -0.1212849389874732 0.0
1.0580558441847183 -0.1276348863510975 0.0
0.5287580641612606 -0.0016281971942587 0.0
0.5301512074917958 0.0078313309138154 0.0
0.5361456312318188 0.0041933064492676 0.0
0.5205378285502618 -0.0061157578992918 0.0