# vtk DataFile Version 3.0
LucasCarvalhoTCC Results
ASCII

DATASET POLYDATA
FIELD FieldData 1
TIME 1 1 double
1.0

POINTS 494 float
0.0 0.0 0.0
8.0 0.0 0.0
8.0 1.0 0.0
0.0 1.0 0.0
4.0 0.0 0.0
4.0 1.0 0.0
4.0 0.35 0.0
4.0 0.65 0.0
0.2010296266416496 1.0 0.0
0.3986915135488555 1.0 0.0
0.5930420631591132 1.0 0.0
0.7841367769318693 1.0 0.0
0.9720301907499852 1.0 0.0
1.156775924166146 1.0 0.0
1.33842670621592 1.0 0.0
1.517034389070868 1.0 0.0
1.69264994674003 1.0 0.0
1.865323550794866 1.0 0.0
2.035104414722059 1.0 0.0
2.202040983487818 1.0 0.0
2.366180993436638 1.0 0.0
2.527571282866703 1.0 0.0
2.686257831390245 1.0 0.0
2.842286022819771 1.0 0.0
2.995700353514032 1.0 0.0
3.146544637914273 1.0 0.0
3.294861880721452 1.0 0.0
3.440694398353104 1.0 0.0
3.58408394609007 1.0 0.0
3.725071294102791 1.0 0.0
3.863696788294668 1.0 0.0
4.136303211705004 1.0 0.0
4.274928705896546 1.0 0.0
4.415916053908917 1.0 0.0
4.55930560164552 1.0 0.0
4.7051381192768 1.0 0.0
4.853455362083593 1.0 0.0
5.004299646483437 1.0 0.0
5.157713977177285 1.0 0.0
5.313742168606385 1.0 0.0
5.472428717129489 1.0 0.0
5.6338190065591 1.0 0.0
5.797959016507455 1.0 0.0
5.96489558527273 1.0 0.0
6.134676449200184 1.0 0.0
6.307350053255487 1.0 0.0
6.482965610925135 1.0 0.0
6.661573293780584 1.0 0.0
6.843224075830887 1.0 0.0
7.027969809247587 1.0 0.0
7.215863223066262 1.0 0.0
7.4069579368396 1.0 0.0
7.601308486450315 1.0 0.0
7.798970373357896 1.0 0.0
8.0 0.7999999999999996 0.0
8.0 0.6000000000013874 0.0
8.0 0.4000000000016649 0.0
8.0 0.2000000000008324 0.0
7.798970373357898 0.0 0.0
7.601308486450317 0.0 0.0
7.406957936839601 0.0 0.0
7.215863223066265 0.0 0.0
7.02796980924759 0.0 0.0
6.843224075830888 0.0 0.0
6.661573293780592 0.0 0.0
6.482965610925139 0.0 0.0
6.307350053255492 0.0 0.0
6.134676449200188 0.0 0.0
5.964895585272735 0.0 0.0
5.797959016507459 0.0 0.0
5.633819006559103 0.0 0.0
5.472428717129493 0.0 0.0
5.313742168606389 0.0 0.0
5.157713977177288 0.0 0.0
5.004299646483441 0.0 0.0
4.853455362083597 0.0 0.0
4.705138119276803 0.0 0.0
4.559305601645523 0.0 0.0
4.415916053908919 0.0 0.0
4.274928705896549 0.0 0.0
4.136303211705007 0.0 0.0
3.863696788294383 0.0 0.0
3.725071294102209 0.0 0.0
3.584083946089184 0.0 0.0
3.440694398352564 0.0 0.0
3.29486188072223 0.0 0.0
3.146544637916415 0.0 0.0
2.995700353517581 0.0 0.0
2.842286022824779 0.0 0.0
2.68625783139676 0.0 0.0
2.527571282874774 0.0 0.0
2.366180993446318 0.0 0.0
2.202040983499156 0.0 0.0
2.035104414735112 0.0 0.0
1.865323550807426 0.0 0.0
1.692649946751479 0.0 0.0
1.517034389081164 0.0 0.0
1.338426706225015 0.0 0.0
1.156775924174005 0.0 0.0
0.9720301907565596 0.0 0.0
0.784136776937109 0.0 0.0
0.5930420631629705 0.0 0.0
0.3986915135514271 0.0 0.0
0.2010296266429896 0.0 0.0
0.0 0.199999999999558 0.0
0.0 0.3999999999989746 0.0
0.0 0.5999999999989464 0.0
0.0 0.7999999999994731 0.0
4.065082561150232 0.3648546699507293 0.0
4.117274722996153 0.4064765305061043 0.0
4.146239186965635 0.4666218605127571 0.0
4.146239186588658 0.5333781411388893 0.0
4.117274722147235 0.5935234705584039 0.0
4.065082560620447 0.6351453303044018 0.0
3.934917439190226 0.6351453302132268 0.0
3.882725277520537 0.5935234701418048 0.0
3.853760813071839 0.5333781396514286 0.0
3.853760813263242 0.4666218595099774 0.0
3.882725277782338 0.4064765295299076 0.0
3.934917439246251 0.3648546697597932 0.0
3.348071016817302 0.5037366844559412 0.0
4.65817771841185 0.4813089492125461 0.0
5.148432135339639 0.5000000000000013 0.0
2.851567863014233 0.5000000000000465 0.0
4.406326506211093 0.3072680842959042 0.0
3.575604791543614 0.6706702532911111 0.0
4.424395205595821 0.6706702556565258 0.0
3.593673497058965 0.3072680820819204 0.0
5.648652107845511 0.5000000000000006 0.0
2.351347890458042 0.4999999999998563 0.0
1.851146954963573 0.4999999999998219 0.0
6.148853043290459 0.4999999999999989 0.0
6.65089532386231 0.5241211434250735 0.0
1.349104674975677 0.4758788558671475 0.0
7.150713697794147 0.4858064203922342 0.0
0.8492863006035025 0.4858064203396458 0.0
4.216343713145164 0.2287135668575249 0.0
3.7836562881134 0.7712864338025908 0.0
4.346988371127422 0.5000000019594898 0.0
4.213775907987267 0.7756803165215952 0.0
3.653011628408684 0.4999999990051173 0.0
3.786224091202296 0.224319683220954 0.0
7.572712389010231 0.5763628491757339 0.0
0.4272876103144935 0.5763628498169726 0.0
4.881741322202974 0.3185523670790996 0.0
3.118258676783759 0.6814476337404539 0.0
3.126854924363118 0.2792890251323842 0.0
4.873145074373641 0.7207109754187309 0.0
5.398381996912613 0.291094588046412 0.0
5.396092528392672 0.7230702977293901 0.0
2.603907471650227 0.7230702981371074 0.0
2.601618001742297 0.2910945873520305 0.0
4.065645388412852 0.1903894420877926 0.0
3.934354612281609 0.8096105573695707 0.0
4.268393145079946 0.6292513280674802 0.0
3.731606853978594 0.3707486723017213 0.0
4.265062587797852 0.3723525870906427 0.0
3.734937412407246 0.6276474138958879 0.0
5.89991820844496 0.720584760457478 0.0
5.899661142431216 0.2940789491313893 0.0
2.100338856207466 0.7059210507243335 0.0
2.100081790085733 0.2794152396968363 0.0
4.648216390708278 0.2460745758417431 0.0
3.350865525112209 0.7519279174007294 0.0
3.351783614314077 0.2460745727859678 0.0
4.649134469923633 0.7519279206208029 0.0
6.386000070083336 0.2800687217561524 0.0
6.399946740387701 0.7091877900019353 0.0
1.613999929083956 0.7199312783619409 0.0
1.600053258667474 0.2908122092889953 0.0
1.099018086220021 0.3101534564461602 0.0
1.099018086220183 0.6898465435530818 0.0
6.900981912171285 0.3101534566801202 0.0
6.900981912171287 0.689846543319878 0.0
3.934891793257755 0.2336799984692873 0.0
4.065108206439434 0.7663200008196746 0.0
5.133077706310633 0.254681732561614 0.0
5.131620328745691 0.7509194919064351 0.0
2.866922291796803 0.7453182673725732 0.0
2.868379670398546 0.2490805081265555 0.0
0.5973224633027379 0.3123440263675117 0.0
7.402677535116692 0.3123440263206204 0.0
7.70928508668797 0.2984218335093966 0.0
0.2907149122204558 0.2984218350042115 0.0
2.359042531710287 0.2526358364218651 0.0
2.362552667743482 0.7498876177132479 0.0
5.640957467742433 0.2526358368965552 0.0
5.637447332034727 0.7498876177447886 0.0
7.330771635020911 0.7204300868765696 0.0
0.6692283641678903 0.7204300870263377 0.0
6.141991504218947 0.7500064293114952 0.0
6.143214654121697 0.2541610692540839 0.0
1.858008494097047 0.2499935706645152 0.0
1.856785344746094 0.7458389307817799 0.0
1.360037479834015 0.7503851535261052 0.0
1.363297687800482 0.2332108063209677 0.0
6.636702311691573 0.7667891933666813 0.0
6.639962519949044 0.2496148464378299 0.0
7.14328150074831 0.2292696686424185 0.0
0.8567184978980538 0.2292696684503961 0.0
4.845173759433459 0.5000000012080886 0.0
3.15482623877425 0.4999999993865263 0.0
3.514470413944982 0.5755907957035395 0.0
4.485529584365944 0.5755907996488695 0.0
4.350214515329574 0.8947484376274254 0.0
3.64978548377064 0.1052515623441257 0.0
4.356280753270322 0.1397878825788729 0.0
3.643719248073251 0.8602121180766233 0.0
4.157657982820168 0.3023031440803671 0.0
3.842342017851872 0.6976968563131654 0.0
4.149794964153143 0.6947625877680722 0.0
3.850205035403508 0.3052374120341299 0.0
4.252863769441745 0.5000000013253333 0.0
3.747136230269581 0.4999999993774377 0.0
2.66150837620265 0.4835883053501762 0.0
5.338491622258749 0.4835883052760253 0.0
7.732076714471282 0.7613785341653052 0.0
0.267923285219987 0.7613785345749642 0.0
3.482582425594127 0.3988584940714734 0.0
4.517417574829351 0.3988584973195787 0.0
7.120961454429095 0.7969630876933931 0.0
0.8790385446795201 0.7969630878928393 0.0
4.524178509919695 0.1937066442020419 0.0
3.472973035782958 0.803602443762734 0.0
4.527026959328886 0.8036024455277256 0.0
3.475821495314308 0.1937066425220846 0.0
5.834485749168302 0.4775259269822466 0.0
2.16551424934095 0.5224740729963462 0.0
4.803832126993392 0.8343163881584211 0.0
3.196167871756218 0.1656836120733276 0.0
3.196167870279283 0.834316388182051 0.0
4.803832130306974 0.1656836112805605 0.0
1.646902821176459 0.5088844228822333 0.0
6.35309717778631 0.4911155766888507 0.0
4.128745436683365 0.8608937921704661 0.0
3.871254562700506 0.1391062074145501 0.0
7.783519314041498 0.4824599318584197 0.0
0.2164806854160975 0.4824599323519634 0.0
3.981228286637499 0.1341601386487245 0.0
4.018771713398118 0.8658398609794804 0.0
4.757705393330306 0.6277793253200102 0.0
3.245404476813698 0.3720431195654205 0.0
3.262406961538709 0.609092082228193 0.0
4.738552632749474 0.3854106153034425 0.0
4.980576921401999 0.1828043249223437 0.0
3.019423077460087 0.8171956749482756 0.0
4.975386875116307 0.8288560892267683 0.0
3.024613123995747 0.1711439108946455 0.0
7.537862127958827 0.7914398748884439 0.0
0.46213787149577 0.7914398749623154 0.0
4.150965283491015 0.1232311208167031 0.0
3.849034718225983 0.8767688792466098 0.0
0.6330166515036239 0.5212993800799176 0.0
7.366983347335347 0.5212993798709434 0.0
5.001451172914062 0.4591396125040952 0.0
2.998548825585332 0.5408603877155073 0.0
5.250532135494552 0.1623854812497458 0.0
5.24999687257574 0.8404382486850067 0.0
2.749794930508214 0.8396380739052673 0.0
2.749676059914328 0.161585306286623 0.0
1.150631951549359 0.5017906253149568 0.0
6.85747267660715 0.5137706215776152 0.0
2.938770240933895 0.3859183074771494 0.0
5.061229757952985 0.6140816927005173 0.0
5.521883200863776 0.8371838481144578 0.0
5.520780843451154 0.1567733764659754 0.0
2.479219155991939 0.1567733759623464 0.0
2.478116798894765 0.8371838481096507 0.0
2.208224060227917 0.1725929992863016 0.0
2.214655190115911 0.821187355218689 0.0
5.791775938918927 0.8274070011383262 0.0
5.785558009721889 0.1789659155514431 0.0
5.243140500145841 0.3651007420679131 0.0
5.247758683472709 0.6318228659349833 0.0
2.748336099792684 0.6332079670712092 0.0
2.766145970608876 0.3583112578457802 0.0
2.500794992947401 0.4517155340697119 0.0
5.499205006433885 0.4517155344186723 0.0
3.472119223331378 0.69283875816516 0.0
4.527880773131323 0.6928387614752662 0.0
2.445947440949104 0.6396216022327238 0.0
5.554052558509333 0.6396216019605415 0.0
1.976669571201813 0.1631348676957265 0.0
[...]
POINT_DATA 494

VECTORS Velocity float
0.0000000000000000 0.0000000000000000 0.0
0.8214472552333094 -0.1354049894603460 0.0
0.0000000000000000 0.0000000000000000 0.0
0.0000000000000000 0.0000000000000000 0.0
0.0000000000000000 0.0000000000000000 0.0
0.0000000000000000 0.0000000000000000 0.0
0.0000000000000000 0.0000000000000000 0.0
0.0000000000000000 0.0000000000000000 0.0
0.0000000000000000 0.0000000000000000 0.0
0.0000000000000000 0.0000000000000000 0.0
0.0000000000000000 0.0000000000000000 0.0
0.0000000000000000 0.0000000000000000 0.0
0.0000000000000000 0.0000000000000000 0.0
0.0000000000000000 0.0000000000000000 0.0
0.0000000000000000 0.0000000000000000 0.0
0.0000000000000000 0.0000000000000000 0.0
0.0000000000000000 0.0000000000000000 0.0
0.0000000000000000 0.0000000000000000 0.0
0.0000000000000000 0.0000000000000000 0.0
0.0000000000000000 0.0000000000000000 0.0
0.0000000000000000 0.0000000000000000 0.0
0.0000000000000000 0.0000000000000000 0.0
0.0000000000000000 0.0000000000000000 0.0
0.0000000000000000 0.0000000000000000 0.0
0.0000000000000000 0.0000000000000000 0.0
0.0000000000000000 0.0000000000000000 0.0
0.0000000000000000 0.0000000000000000 0.0
0.0000000000000000 0.0000000000000000 0.0
0.0000000000000000 0.0000000000000000 0.0
0.0000000000000000 0.0000000000000000 0.0
0.0000000000000000 0.0000000000000000 0.0
0.0000000000000000 0.0000000000000000 0.0
0.0000000000000000 0.0000000000000000 0.0
0.0000000000000000 0.0000000000000000 0.0
0.0000000000000000 0.0000000000000000 0.0
0.0000000000000000 0.0000000000000000 0.0
0.0000000000000000 0.0000000000000000 0.0
0.0000000000000000 0.0000000000000000 0.0
0.0000000000000000 0.0000000000000000 0.0
0.0000000000000000 0.0000000000000000 0.0
0.0000000000000000 0.0000000000000000 0.0
0.0000000000000000 0.0000000000000000 0.0
0.0000000000000000 0.0000000000000000 0.0
0.0000000000000000 0.0000000000000000 0.0
0.0000000000000000 0.0000000000000000 0.0
0.0000000000000000 0.0000000000000000 0.0
0.0000000000000000 0.0000000000000000 0.0
0.0000000000000000 0.0000000000000000 0.0
0.0000000000000000 0.0000000000000000 0.0
0.0000000000000000 0.0000000000000000 0.0
0.0000000000000000 0.0000000000000000 0.0
0.0000000000000000 0.0000000000000000 0.0
0.0000000000000000 0.0000000000000000 0.0
0.0000000000000000 0.0000000000000000 0.0
1.0796503345958173 0.5283075582991288 0.0
0.9946349049680329 0.1245592615227729 0.0
0.9626551525516025 -0.0879964298354240 0.0
1.0637235539632071 -0.4445301001406590 0.0
0.0000000000000000 0.0000000000000000 0.0
0.0000000000000000 0.0000000000000000 0.0
0.0000000000000000 0.0000000000000000 0.0
0.0000000000000000 0.0000000000000000 0.0
0.0000000000000000 0.0000000000000000 0.0
0.0000000000000000 0.0000000000000000 0.0
0.0000000000000000 0.0000000000000000 0.0
0.0000000000000000 0.0000000000000000 0.0
0.0000000000000000 0.0000000000000000 0.0
0.0000000000000000 0.0000000000000000 0.0
0.0000000000000000 0.0000000000000000 0.0
0.0000000000000000 0.0000000000000000 0.0
0.0000000000000000 0.0000000000000000 0.0
0.0000000000000000 0.0000000000000000 0.0
0.0000000000000000 0.0000000000000000 0.0
0.0000000000000000 0.0000000000000000 0.0
0.0000000000000000 0.0000000000000000 0.0
0.0000000000000000 0.0000000000000000 0.0
0.0000000000000000 0.0000000000000000 0.0
0.0000000000000000 0.0000000000000000 0.0
0.0000000000000000 0.0000000000000000 0.0
0.0000000000000000 0.0000000000000000 0.0
0.0000000000000000 0.0000000000000000 0.0
0.0000000000000000 0.0000000000000000 0.0
0.0000000000000000 0.0000000000000000 0.0
0.0000000000000000 0.0000000000000000 0.0
0.0000000000000000 0.0000000000000000 0.0
0.0000000000000000 0.0000000000000000 0.0
0.0000000000000000 0.0000000000000000 0.0
0.0000000000000000 0.0000000000000000 0.0
0.0000000000000000 0.0000000000000000 0.0
0.0000000000000000 0.0000000000000000 0.0
0.0000000000000000 0.0000000000000000 0.0
0.0000000000000000 0.0000000000000000 0.0
0.0000000000000000 0.0000000000000000 0.0
0.0000000000000000 0.0000000000000000 0.0
0.0000000000000000 0.0000000000000000 0.0
0.0000000000000000 0.0000000000000000 0.0
0.0000000000000000 0.0000000000000000 0.0
0.0000000000000000 0.0000000000000000 0.0
0.0000000000000000 0.0000000000000000 0.0
0.0000000000000000 0.0000000000000000 0.0
0.0000000000000000 0.0000000000000000 0.0
0.0000000000000000 0.0000000000000000 0.0
0.0000000000000000 0.0000000000000000 0.0
0.0000000000000000 0.0000000000000000 0.0
1.0000000000000000 0.0000000000000000 0.0
1.0000000000000000 0.0000000000000000 0.0
1.0000000000000000 0.0000000000000000 0.0
1.0000000000000000 0.0000000000000000 0.0
0.0000000000000000 0.0000000000000000 0.0
0.0000000000000000 0.0000000000000000 0.0
0.0000000000000000 0.0000000000000000 0.0
0.0000000000000000 0.0000000000000000 0.0
0.0000000000000000 0.0000000000000000 0.0
0.0000000000000000 0.0000000000000000 0.0
0.0000000000000000 0.0000000000000000 0.0
0.0000000000000000 0.0000000000000000 0.0
0.0000000000000000 0.0000000000000000 0.0
0.0000000000000000 0.0000000000000000 0.0
0.0000000000000000 0.0000000000000000 0.0
0.0000000000000000 0.0000000000000000 0.0
1.4197856506986157 0.0049118575746551 0.0
1.4220413687909210 0.0150647129781898 0.0
1.5348422947765923 -0.0052623218700031 0.0
1.5336083500485693 -0.0172069734410050 0.0
1.3597864837636453 0.0314259686289885 0.0
1.3611316725153098 0.0358368445426877 0.0
1.3645701474062804 -0.0856644144904578 0.0
1.3606886032140273 -0.0878344017433125 0.0
1.5293761647038793 0.0058814761740954 0.0
1.5277293988387053 -0.0027378301428200 0.0
1.4981344793937477 0.0046321639814124 0.0
1.4971428818007284 0.0007914800118574 0.0
1.5192459398937084 -0.0231871304532792 0.0
1.5205266286960162 0.0091224996899293 0.0
1.5978243901843041 0.0070687299949752 0.0
1.5950470565486745 -0.0145602345053947 0.0
1.3526014676408100 0.2482925845632616 0.0
1.3501198560075360 0.2476976262725808 0.0
1.2257291493787010 0.0153460786761322 0.0
1.3931449667538331 -0.1762181476521964 0.0
1.2246386454818261 0.0112317076405196 0.0
1.3966026663683513 -0.1751996154556267 0.0
1.5293821540017380 0.0165448250723759 0.0
1.5155639691167602 -0.0345474789508454 0.0
1.3352282982527166 0.0214521321449962 0.0
1.3297840803006893 0.0198770331316587 0.0
1.2992207673917062 -0.0130120613692848 0.0
1.2873250194060748 -0.0112446601267935 0.0
1.3150790848848415 0.0001985840746687 0.0
1.2408385311986769 -0.0129709799477599 0.0
1.2238932810746936 0.0088106104878655 0.0
1.3268704875131219 -0.0020662509026954 0.0
1.4620843724041950 0.1231638965557307 0.0
1.4622409359148107 0.1222144830093743 0.0
1.3496638769867892 -0.2169073414643537 0.0
1.3522913446384173 -0.2152151078840820 0.0
1.4016867500685137 0.2696135790952425 0.0
1.3964495402105528 0.2758240619875432 0.0
1.2112036293393016 -0.0325224048521167 0.0
1.3012502680111244 0.0024641656080899 0.0
1.2921221922194783 0.0002996790770669 0.0
1.2180389705103212 -0.0306989109801181 0.0
1.1509294727332651 -0.0370109173657023 0.0
1.1455595872720190 -0.0313380621107231 0.0
1.1656677352050095 0.0140800977194681 0.0
1.1615413371895611 0.0055051125253071 0.0
1.2557358127289371 0.0050645101582087 0.0
1.2414559959238676 -0.0153355713018816 0.0
1.2453329142119973 0.0102561539318575 0.0
1.2506299702238550 -0.0082761124849304 0.0
1.4304401814660681 -0.0168681320749470 0.0
1.3299323314590794 0.0563429501161933 0.0
1.4306263788168954 0.0193921022658312 0.0
1.3274674375464057 -0.0514010160566134 0.0
1.5809300569554978 -0.1931029377866680 0.0
1.5801508234739370 -0.1938987186772401 0.0
1.2026228960160952 -0.0289881707150349 0.0
1.2176162265018118 0.0296823625224284 0.0
1.1911679036780782 -0.0365382787744267 0.0
1.2257203505323711 0.0173048005390998 0.0
1.4264861836476816 0.0142116449034009 0.0
1.4334481203003098 -0.0134893007804367 0.0
1.2923415267753775 -0.1560648032118093 0.0
1.2830564240874049 0.1861237706306532 0.0
1.2205851588297074 0.0529456846601957 0.0
1.1815579235900049 -0.0086711996222467 0.0
1.2163398404242278 -0.0376086041343816 0.0
1.1930443042437706 0.0343005457474680 0.0
1.2920708799311398 0.0035036304947852 0.0
1.2953052143887751 -0.0088307164844994 0.0
1.1890500517543812 0.0380434435651713 0.0
1.2355953499823502 -0.0601458417099849 0.0
1.1968530440916818 0.0403040251201820 0.0
1.2276183557086988 -0.0586042130476309 0.0
1.1963758040809227 0.0661880667225271 0.0
1.1683195601502518 -0.0465479067129396 0.0
1.1423801847411130 -0.0606115890660826 0.0
1.2183986225362764 0.0537013366162095 0.0
1.1379376013402234 -0.0197663080573065 0.0
1.1365726879479423 0.0154050989047570 0.0
1.4729705476827544 0.0123525486931311 0.0
1.4727302162334428 0.0055286433438013 0.0
1.3591211146674418 0.0376691237362524 0.0
1.3553385961267816 -0.0527342769524076 0.0
0.5515214313289831 -0.0035845259700900 0.0
0.5386978263175912 -0.0037829310459785 0.0
0.6479532813365971 0.0954029899573988 0.0
0.6611570659840963 0.0953618116563205 0.0
1.4439165230809821 0.3879418191694874 0.0
1.4409578084266310 0.3881742530201645 0.0
1.5071344306001642 -0.3027762891282833 0.0
1.5081111667849283 -0.3004799657344482 0.0
0.9464715580183279 0.0112621258935880 0.0
0.9466146438542540 0.0244038716589290 0.0
1.5384950266241151 0.0207692627566878 0.0
1.5346611772524870 -0.0285935926630858 0.0
1.1732547966734217 0.1913476774509774 0.0
1.2026451953402222 -0.2665683383602759 0.0
1.3714015208134795 -0.0425884069288660 0.0
1.3730198886595071 0.0248474228109879 0.0
0.7637487375362516 -0.0095833406802483 0.0
0.7802729232858933 0.0083715168949436 0.0
1.0256374568478155 -0.0186745219683045 0.0
1.0250364175221391 -0.0236739968000082 0.0
1.0385491057148397 0.0021380179314641 0.0
1.0422240242396748 -0.0001156624375695 0.0
1.5083805761935494 -0.0170670401049791 0.0
1.5065771725425050 -0.0327656438208947 0.0
0.7410323062691397 -0.0890688973406569 0.0
0.7449975684187108 -0.0900837183713940 0.0
0.7856000560292543 0.0741393746588214 0.0
0.7906344240288075 0.0733007170214936 0.0
1.4525453872749334 0.0313008178975824 0.0
1.4530418534054914 0.0265564110499622 0.0
0.9253686814293980 -0.0967433786123905 0.0
0.9269509816977305 -0.0985198481788045 0.0
1.3379641819504888 -0.0022061513504591 0.0
1.2657278737996094 0.0147719022938207 0.0
1.0064704739408883 -0.0811880685206375 0.0
1.0068959979201162 -0.0813649857868315 0.0
1.4318337700082329 -0.0392803512322087 0.0
1.4415939890761937 -0.0432280154682326 0.0
1.3984629406933642 0.0542910530299952 0.0
1.4053407130593971 0.0597638742663974 0.0
0.8216325170811266 0.0022085856412908 0.0
0.8197262624910715 0.0017086354668683 0.0
0.7744231259442500 0.0111105459236731 0.0
0.7691181748431097 0.0084311861848169 0.0
0.8338450824631561 0.0332992558577914 0.0
0.8523039650743981 -0.0581566765043672 0.0
0.7680555745528502 0.0683638129937088 0.0
0.7691032388186347 0.0670263303052051 0.0
1.5402658607328430 -0.0173463115489139 0.0
1.5483102448467909 0.0114922949972494 0.0
1.4838467676512104 -0.0089354702501386 0.0
1.4832478099579709 -0.0133365614013642 0.0
0.7448192458555302 0.0027695476191917 0.0
0.7614847987341913 0.0167593126181099 0.0
0.7495825012126630 -0.0081207763497247 0.0
0.7433451634763134 0.0082863134866805 0.0
1.5729872777926890 0.0064623992371051 0.0
1.5766200953379816 -0.0467803625108648 0.0
1.4435112761083484 -0.0341980288535866 0.0
1.4396504375844221 -0.0306691782597526 0.0
0.7477220258526895 -0.0092596743574849 0.0
0.6757424526893788 0.0154883710733946 0.0
0.6839876960979460 -0.0158568678575151 0.0
0.7363080437726242 0.0085125199358984 0.0
0.8413479478612294 0.0320899768003713 0.0
0.8172363437630683 -0.0184269326322596 0.0
0.8448410975001447 0.0218748849612018 0.0
0.8278459895094709 -0.0257547671122869 0.0
1.3965441327462873 0.0115113354525805 0.0
1.4062948953462318 -0.0099136598117993 0.0
1.3960876282533896 0.0057871053149374 0.0
1.4076377634665003 -0.0167266375732213 0.0
1.5141801395737857 0.0110092812606051 0.0
1.5079255407632561 -0.0137435548112590 0.0
1.3213967713622361 0.0138115605693807 0.0
1.3396679399889133 -0.0355561252666673 0.0
1.3898017025037561 0.0016200824846934 0.0
1.3925089403969748 -0.0047368981746361 0.0
0.7582321287301109 -0.0192770277517512 0.0
0.6967461072682350 0.0237698046817648 0.0
0.7554401386552271 -0.0209951485947439 0.0
0.7009374867852310 0.0237380428595151 0.0
0.6092972754852499 -0.1036680578880224 0.0
0.6107193511185257 -0.0993606449285829 0.0
1.2840587098981295 0.1014896773218508 0.0
1.2833525107557442 0.1006052774739266 0.0
1.3916128037834532 -0.0077827572567453 0.0
1.3601672742895179 -0.0243221853113417 0.0
1.3633183152632029 0.0210540963311549 0.0
1.3940576734883730 0.0052899336516765 0.0
0.8090072105900145 -0.0591026320763552 0.0
0.8090497679801031 0.0665982005931485 0.0
1.0735156652730857 -0.1187448521504647 0.0
1.0706557382672972 -0.1099623332741609 0.0
1.0895460690094019 0.1600785195693899 0.0
1.0875310146329316 0.1655436590331844 0.0
0.8665153210971844 -0.0419465403011252 0.0
0.8388313216429611 0.0508897734408818 0.0
0.8592851451856952 -0.0393265508059656 0.0
0.8467364363878389 0.0543349736371722 0.0
1.4966346913808593 -0.0119874908862041 0.0
1.4952921210687671 -0.0139678812996657 0.0
0.7087240628676859 -0.0197167934601624 0.0
0.7334066240147107 0.0031800928863900 0.0
0.6846029471021413 0.0210963385090485 0.0
0.7492858382756000 0.0383139729487550 0.0
0.6888207902221748 -0.0049473670775057 0.0
0.6914334058304475 0.0036859203823567 0.0
1.3955324136303708 -0.1513693723547721 0.0
1.3892726323207110 -0.1506117963808447 0.0
1.3138782524527715 0.1991213787381976 0.0
1.3098431416700020 0.1900701931489933 0.0
0.5663478723268444 -0.0534878948536505 0.0
0.5682210099741209 -0.0534699566225114 0.0
0.5763820567274125 0.0512619014489530 0.0
0.5787874004073241 0.0499811707877178 0.0
1.3857000268717246 -0.0073313112858411 0.0
1.3919105693515814 -0.0032297235152336 0.0
1.3083189918458380 -0.1126269321426830 0.0
1.3124021049437948 -0.1133444537680977 0.0
1.3596028497679487 0.1149655627475783 0.0
1.3532561923181674 0.1156895646857658 0.0
0.8722893146055637 0.0398400896382024 0.0
0.7823395921606501 -0.1025190244875347 0.0
0.8626692577602016 0.0467569056021006 0.0
0.7945775098667045 -0.0926739758886450 0.0
1.3747249819533751 -0.0362399204484234 0.0
1.3504752991192948 0.0409948774861618 0.0
1.3678635179276266 -0.0332043764298903 0.0
1.3564330742198529 0.0445684297991549 0.0
1.4645315770643692 -0.0068418050955965 0.0
1.4625319615867880 -0.0183264936108475 0.0
0.6752330264700446 -0.0027288193585457 0.0
0.6809882398145800 0.0086407417272039 0.0
1.3698896419993010 0.0623235327390601 0.0
1.3761864429723598 0.0510195565303452 0.0
1.4980796992992014 -0.0366648770788131 0.0
1.4797983772189134 0.0389104966967164 0.0
0.7564771701814831 0.0647745765743088 0.0
0.7489916908580513 0.0695798456388431 0.0
1.4343714077592258 -0.0327584632730791 0.0
1.4021848465412001 0.0370594854365713 0.0
1.4050946797172708 -0.0526548013228253 0.0
1.4314695902975170 0.0107991155839259 0.0
1.5771884088862604 -0.0029816972743334 0.0
1.5902134690367560 -0.0036278753217279 0.0
0.5304216376237854 -0.0005271203810187 0.0
0.5309387115190859 0.0022447375708247 0.0
1.4965840540908475 -0.0177424094112850 0.0
1.4973518761633058 0.0172473592237231 0.0
0.9410683874901665 0.2246098745026939 0.0
0.9114860480310273 -0.2202864055870510 0.0
1.3236928959611334 -0.0100062371323959 0.0
1.3294630106390459 0.0026286825839561 0.0
1.3303033237014315 0.0139374596908865 0.0
1.3492726841786122 -0.0384187959384232 0.0
1.3249582277338647 0.0035514204362878 0.0
1.3225273363244161 0.0005205471007161 0.0
1.1920412015670045 -0.0971472890043516 0.0
1.1924621132322071 -0.0980745435146113 0.0
1.3838581423050622 -0.0317107891646911 0.0
1.3576833574481955 0.0255858282444153 0.0
1.4357130084951613 -0.0155731976951659 0.0
1.4283343109400397 0.0147006892185505 0.0
1.3896339822868158 -0.0350971404172582 0.0
1.3635370025872851 0.0285667311102171 0.0
0.4738813286854135 0.0603558625194837 0.0
0.4747817898097978 0.0565955363960667 0.0
0.4687596194753004 -0.0433389329298231 0.0
0.4646083091802357 -0.0463964959848825 0.0
1.4341341012876061 -0.2725691206221185 0.0
1.4351894290013330 -0.2722846033355845 0.0
0.4220010898357648 0.0037906853144554 0.0
0.4281986012141624 -0.0072356532300368 0.0
1.5214273836807386 0.2742114128332234 0.0
1.5219272704788893 0.2727114801692607 0.0
0.5937574736316009 0.0935841129689025 0.0
0.5945525029820475 0.0930103251576575 0.0
1.4930748976619181 0.0179595076205225 0.0
1.4930499549360328 -0.0180460611796650 0.0
1.3280945678438325 -0.0226694123653330 0.0
1.3352002091500355 0.0258615238231818 0.0
1.4118095637517567 -0.2797684707774373 0.0
1.4100281456040717 -0.2851594735974847 0.0
1.3734796905062698 0.3957927069212194 0.0
1.3802775487800516 0.3872416182451810 0.0
1.4777167189048599 -0.0026062841835562 0.0
1.4818388438577410 -0.0057244001542241 0.0
0.5171825973687512 0.0610600394000301 0.0
0.4982592525276992 -0.0649471338505030 0.0
0.5083666927275892 0.0625783916630903 0.0
0.5078181196432549 -0.0629452403233574 0.0
0.4648370055903713 0.0239140878793295 0.0
0.4803530800384280 0.0238655117855214 0.0
0.5125663441251173 -0.0131453074313630 0.0
0.5281971436231784 -0.0144918749830022 0.0
1.1429840145608088 -0.1645016867450611 0.0
1.1524796254234737 -0.1593778186590532 0.0
1.1781903838683874 0.2045985914787039 0.0
1.1698754063716916 0.2104095025660419 0.0
1.1998068985282264 -0.2646102748346030 0.0
1.1788464052123040 0.2601971240800410 0.0
1.4090720658635956 0.0205880249090908 0.0
1.4101884558796713 0.0218557709058996 0.0
0.5400707465172676 -0.0063485801677589 0.0
0.5151363236057560 0.0000768950170949 0.0
0.5459281274126162 0.0095773193538932 0.0
0.5227563549716252 0.0027471563123694 0.0
1.4407369423473708 -0.0063763608464194 0.0
1.4347872339890251 0.0015378977757353 0.0
1.3234757553157164 -0.0177503389538205 0.0
1.3295512799520433 -0.0190420132141157 0.0
0.8826886934998911 0.2593950041303270 0.0
0.9387695670153570 -0.2413178917214070 0.0
1.0992863045217034 0.0907080377904306 0.0
1.0968987824194312 0.0939675219835195 0.0
1.1162876103818582 -0.1184369547527639 0.0
1.1091716737588895 -0.1179635731235959 0.0
0.6446001534125547 -0.1308613657283787 0.0
0.6562879648793679 0.1369750281498252 0.0
0.3388848346504633 -0.0255901581835255 0.0
0.3394230581727009 -0.0243274524210772 0.0
0.3464195848141571 -0.0082825155529691 0.0
0.3472485263479639 -0.0081148049801849 0.0
0.3849537478738795 -0.0103514925096378 0.0
0.3860562501240861 0.0104355589764581 0.0
1.2216302400797772 0.3112165990915913 0.0
1.1727917703173960 -0.2563418271347593 0.0
0.5272472608204539 -0.0615728082252653 0.0
0.5209467236286192 0.0745004909006483 0.0
0.5232855400213509 -0.0604730467841193 0.0
0.5251020501722242 0.0762174525081550 0.0
1.4725525758530413 0.0428198759734354 0.0
1.4798922471982010 -0.0545148820637174 0.0
0.4676509023117720 0.0716628218123073 0.0
0.5302410106224787 -0.1183754503245706 0.0
0.9410247248415957 0.0323716024974055 0.0
0.9390272273213629 0.0326424038072281 0.0
0.9499396758146895 -0.0277816374971526 0.0
0.9495103854540836 -0.0261275728754803 0.0
0.8615488595003287 0.0140427536775149 0.0
0.8618584950695228 0.0240840576564685 0.0
0.5632341980363212 0.0524985248404547 0.0
0.5363722433222151 -0.0627697495296893 0.0
0.5600777698947258 0.0520113309446255 0.0
0.5376478960482638 -0.0630420198520490 0.0
1.4839027356572196 -0.0037084913357451 0.0
1.4829283918866176 -0.0014112261346476 0.0
0.4568654269874696 -0.0750801192322092 0.0
0.4947045375000410 0.0510461665254767 0.0
0.4840522514321370 0.0621038244538881 0.0
0.4699946278348316 -0.0630576126774168 0.0
1.1281065135634034 0.0098911826596019 0.0
1.1465884477876105 0.0161624691511608 0.0
1.1692952886519157 -0.0399236880574436 0.0
1.1620741537257462 -0.0390247682201929 0.0
1.3218660454295503 -0.0064699288209643 0.0
1.3152543461992117 0.0008208119120084 0.0
1.3418173964995790 -0.0562784008918217 0.0
1.3477766918168372 -0.0433429049786714 0.0
1.1453758114990877 -0.0811693123255841 0.0
1.1495589235862569 -0.0825011469842251 0.0
0.5570756413621880 -0.0023776018441659 0.0
0.5496079893960745 0.0051337405562874 0.0
0.5564369268548316 0.0030850196525302 0.0
0.5493355497527247 -0.0047857558913963 0.0