# vtk DataFile Version 3.0
LucasCarvalhoTCC Results
ASCII

DATASET POLYDATA
FIELD FieldData 1
TIME 1 1 double
0.9

POINTS 494 float
0.0 0.0 0.0
8.0 0.0 0.0
8.0 1.0 0.0
0.0 1.0 0.0
4.0 0.0 0.0
4.0 1.0 0.0
4.0 0.35 0.0
4.0 0.65 0.0
0.2010296266416496 1.0 0.0
0.3986915135488555 1.0 0.0
0.5930420631591132 1.0 0.0
0.7841367769318693 1.0 0.0
0.9720301907499852 1.0 0.0
1.156775924166146 1.0 0.0
1.33842670621592 1.0 0.0
1.517034389070868 1.0 0.0
1.69264994674003 1.0 0.0
1.865323550794866 1.0 0.0
2.035104414722059 1.0 0.0
2.202040983487818 1.0 0.0
2.366180993436638 1.0 0.0
2.527571282866703 1.0 0.0
2.686257831390245 1.0 0.0
2.842286022819771 1.0 0.0
2.995700353514032 1.0 0.0
3.146544637914273 1.0 0.0
3.294861880721452 1.0 0.0
3.440694398353104 1.0 0.0
3.58408394609007 1.0 0.0
3.725071294102791 1.0 0.0
3.863696788294668 1.0 0.0
4.136303211705004 1.0 0.0
4.274928705896546 1.0 0.0
4.415916053908917 1.0 0.0
4.55930560164552 1.0 0.0
4.7051381192768 1.0 0.0
4.853455362083593 1.0 0.0
5.004299646483437 1.0 0.0
5.157713977177285 1.0 0.0
5.313742168606385 1.0 0.0
5.472428717129489 1.0 0.0
5.6338190065591 1.0 0.0
5.797959016507455 1.0 0.0
5.96489558527273 1.0 0.0
6.134676449200184 1.0 0.0
6.307350053255487 1.0 0.0
6.482965610925135 1.0 0.0
6.661573293780584 1.0 0.0
6.843224075830887 1.0 0.0
7.027969809247587 1.0 0.0
7.215863223066262 1.0 0.0
7.4069579368396 1.0 0.0
7.601308486450315 1.0 0.0
7.798970373357896 1.0 0.0
8.0 0.7999999999999996 0.0
8.0 0.6000000000013874 0.0
8.0 0.4000000000016649 0.0
8.0 0.2000000000008324 0.0
7.798970373357898 0.0 0.0
7.601308486450317 0.0 0.0
7.406957936839601 0.0 0.0
7.215863223066265 0.0 0.0
7.02796980924759 0.0 0.0
6.843224075830888 0.0 0.0
6.661573293780592 0.0 0.0
6.482965610925139 0.0 0.0
6.307350053255492 0.0 0.0
6.134676449200188 0.0 0.0
5.964895585272735 0.0 0.0
5.797959016507459 0.0 0.0
5.633819006559103 0.0 0.0
5.472428717129493 0.0 0.0
5.313742168606389 0.0 0.0
5.157713977177288 0.0 0.0
5.004299646483441 0.0 0.0
4.853455362083597 0.0 0.0
4.705138119276803 0.0 0.0
4.559305601645523 0.0 0.0
4.415916053908919 0.0 0.0
4.274928705896549 0.0 0.0
4.136303211705007 0.0 0.0
3.863696788294383 0.0 0.0
3.725071294102209 0.0 0.0
3.584083946089184 0.0 0.0
3.440694398352564 0.0 0.0
3.29486188072223 0.0 0.0
3.146544637916415 0.0 0.0
2.995700353517581 0.0 0.0
2.842286022824779 0.0 0.0
2.68625783139676 0.0 0.0
2.527571282874774 0.0 0.0
2.366180993446318 0.0 0.0
2.202040983499156 0.0 0.0
2.035104414735112 0.0 0.0
1.865323550807426 0.0 0.0
1.692649946751479 0.0 0.0
1.517034389081164 0.0 0.0
1.338426706225015 0.0 0.0
1.156775924174005 0.0 0.0
0.9720301907565596 0.0 0.0
0.784136776937109 0.0 0.0
0.5930420631629705 0.0 0.0
0.3986915135514271 0.0 0.0
0.2010296266429896 0.0 0.0
0.0 0.199999999999558 0.0
0.0 0.3999999999989746 0.0
0.0 0.5999999999989464 0.0
0.0 0.7999999999994731 0.0
4.065082561150232 0.3648546699507293 0.0
4.117274722996153 0.4064765305061043 0.0
4.146239186965635 0.4666218605127571 0.0
4.146239186588658 0.5333781411388893 0.0
4.117274722147235 0.5935234705584039 0.0
4.065082560620447 0.6351453303044018 0.0
3.934917439190226 0.6351453302132268 0.0
3.882725277520537 0.5935234701418048 0.0
3.853760813071839 0.5333781396514286 0.0
3.853760813263242 0.4666218595099774 0.0
3.882725277782338 0.4064765295299076 0.0
3.934917439246251 0.3648546697597932 0.0
3.348071016817302 0.5037366844559412 0.0
4.65817771841185 0.4813089492125461 0.0
5.148432135339639 0.5000000000000013 0.0
2.851567863014233 0.5000000000000465 0.0
4.406326506211093 0.3072680842959042 0.0
3.575604791543614 0.6706702532911111 0.0
4.424395205595821 0.6706702556565258 0.0
3.593673497058965 0.3072680820819204 0.0
5.648652107845511 0.5000000000000006 0.0
2.351347890458042 0.4999999999998563 0.0
1.851146954963573 0.4999999999998219 0.0
6.148853043290459 0.4999999999999989 0.0
6.65089532386231 0.5241211434250735 0.0
1.349104674975677 0.4758788558671475 0.0
7.150713697794147 0.4858064203922342 0.0
0.8492863006035025 0.4858064203396458 0.0
4.216343713145164 0.2287135668575249 0.0
3.7836562881134 0.7712864338025908 0.0
4.346988371127422 0.5000000019594898 0.0
4.213775907987267 0.7756803165215952 0.0
3.653011628408684 0.4999999990051173 0.0
3.786224091202296 0.224319683220954 0.0
7.572712389010231 0.5763628491757339 0.0
0.4272876103144935 0.5763628498169726 0.0
4.881741322202974 0.3185523670790996 0.0
3.118258676783759 0.6814476337404539 0.0
3.126854924363118 0.2792890251323842 0.0
4.873145074373641 0.7207109754187309 0.0
5.398381996912613 0.291094588046412 0.0
5.396092528392672 0.7230702977293901 0.0
2.603907471650227 0.7230702981371074 0.0
2.601618001742297 0.2910945873520305 0.0
4.065645388412852 0.1903894420877926 0.0
3.934354612281609 0.8096105573695707 0.0
4.268393145079946 0.6292513280674802 0.0
3.731606853978594 0.3707486723017213 0.0
4.265062587797852 0.3723525870906427 0.0
3.734937412407246 0.6276474138958879 0.0
5.89991820844496 0.720584760457478 0.0
5.899661142431216 0.2940789491313893 0.0
2.100338856207466 0.7059210507243335 0.0
2.100081790085733 0.2794152396968363 0.0
4.648216390708278 0.2460745758417431 0.0
3.350865525112209 0.7519279174007294 0.0
3.351783614314077 0.2460745727859678 0.0
4.649134469923633 0.7519279206208029 0.0
6.386000070083336 0.2800687217561524 0.0
6.399946740387701 0.7091877900019353 0.0
1.613999929083956 0.7199312783619409 0.0
1.600053258667474 0.2908122092889953 0.0
1.099018086220021 0.3101534564461602 0.0
1.099018086220183 0.6898465435530818 0.0
6.900981912171285 0.3101534566801202 0.0
6.900981912171287 0.689846543319878 0.0
3.934891793257755 0.2336799984692873 0.0
4.065108206439434 0.7663200008196746 0.0
5.133077706310633 0.254681732561614 0.0
5.131620328745691 0.7509194919064351 0.0
2.866922291796803 0.7453182673725732 0.0
2.868379670398546 0.2490805081265555 0.0
0.5973224633027379 0.3123440263675117 0.0
7.402677535116692 0.3123440263206204 0.0
7.70928508668797 0.2984218335093966 0.0
0.2907149122204558 0.2984218350042115 0.0
2.359042531710287 0.2526358364218651 0.0
2.362552667743482 0.7498876177132479 0.0
5.640957467742433 0.2526358368965552 0.0
5.637447332034727 0.7498876177447886 0.0
7.330771635020911 0.7204300868765696 0.0
0.6692283641678903 0.7204300870263377 0.0
6.141991504218947 0.7500064293114952 0.0
6.143214654121697 0.2541610692540839 0.0
1.858008494097047 0.2499935706645152 0.0
1.856785344746094 0.7458389307817799 0.0
1.360037479834015 0.7503851535261052 0.0
1.363297687800482 0.2332108063209677 0.0
6.636702311691573 0.7667891933666813 0.0
6.639962519949044 0.2496148464378299 0.0
7.14328150074831 0.2292696686424185 0.0
0.8567184978980538 0.2292696684503961 0.0
4.845173759433459 0.5000000012080886 0.0
3.15482623877425 0.4999999993865263 0.0
3.514470413944982 0.5755907957035395 0.0
4.485529584365944 0.5755907996488695 0.0
4.350214515329574 0.8947484376274254 0.0
3.64978548377064 0.1052515623441257 0.0
4.356280753270322 0.1397878825788729 0.0
3.643719248073251 0.8602121180766233 0.0
4.157657982820168 0.3023031440803671 0.0
3.842342017851872 0.6976968563131654 0.0
4.149794964153143 0.6947625877680722 0.0
3.850205035403508 0.3052374120341299 0.0
4.252863769441745 0.5000000013253333 0.0
3.747136230269581 0.4999999993774377 0.0
2.66150837620265 0.4835883053501762 0.0
5.338491622258749 0.4835883052760253 0.0
7.732076714471282 0.7613785341653052 0.0
0.267923285219987 0.7613785345749642 0.0
3.482582425594127 0.3988584940714734 0.0
4.517417574829351 0.3988584973195787 0.0
7.120961454429095 0.7969630876933931 0.0
0.8790385446795201 0.7969630878928393 0.0
4.524178509919695 0.1937066442020419 0.0
3.472973035782958 0.803602443762734 0.0
4.527026959328886 0.8036024455277256 0.0
3.475821495314308 0.1937066425220846 0.0
5.834485749168302 0.4775259269822466 0.0
2.16551424934095 0.5224740729963462 0.0
4.803832126993392 0.8343163881584211 0.0
3.196167871756218 0.1656836120733276 0.0
3.196167870279283 0.834316388182051 0.0
4.803832130306974 0.1656836112805605 0.0
1.646902821176459 0.5088844228822333 0.0
6.35309717778631 0.4911155766888507 0.0
4.128745436683365 0.8608937921704661 0.0
3.871254562700506 0.1391062074145501 0.0
7.783519314041498 0.4824599318584197 0.0
0.2164806854160975 0.4824599323519634 0.0
3.981228286637499 0.1341601386487245 0.0
4.018771713398118 0.8658398609794804 0.0
4.757705393330306 0.6277793253200102 0.0
3.245404476813698 0.3720431195654205 0.0
3.262406961538709 0.609092082228193 0.0
4.738552632749474 0.3854106153034425 0.0
4.980576921401999 0.1828043249223437 0.0
3.019423077460087 0.8171956749482756 0.0
4.975386875116307 0.8288560892267683 0.0
3.024613123995747 0.1711439108946455 0.0
7.537862127958827 0.7914398748884439 0.0
0.46213787149577 0.7914398749623154 0.0
4.150965283491015 0.1232311208167031 0.0
3.849034718225983 0.8767688792466098 0.0
0.6330166515036239 0.5212993800799176 0.0
7.366983347335347 0.5212993798709434 0.0
5.001451172914062 0.4591396125040952 0.0
2.998548825585332 0.5408603877155073 0.0
5.250532135494552 0.1623854812497458 0.0
5.24999687257574 0.8404382486850067 0.0
2.749794930508214 0.8396380739052673 0.0
2.749676059914328 0.161585306286623 0.0
1.150631951549359 0.5017906253149568 0.0
6.85747267660715 0.5137706215776152 0.0
2.938770240933895 0.3859183074771494 0.0
5.061229757952985 0.6140816927005173 0.0
5.521883200863776 0.8371838481144578 0.0
5.520780843451154 0.1567733764659754 0.0
2.479219155991939 0.1567733759623464 0.0
2.478116798894765 0.8371838481096507 0.0
2.208224060227917 0.1725929992863016 0.0
2.214655190115911 0.821187355218689 0.0
5.791775938918927 0.8274070011383262 0.0
5.785558009721889 0.1789659155514431 0.0
5.243140500145841 0.3651007420679131 0.0
5.247758683472709 0.6318228659349833 0.0
2.748336099792684 0.6332079670712092 0.0
2.766145970608876 0.3583112578457802 0.0
2.500794992947401 0.4517155340697119 0.0
5.499205006433885 0.4517155344186723 0.0
3.472119223331378 0.69283875816516 0.0
4.527880773131323 0.6928387614752662 0.0
2.445947440949104 0.6396216022327238 0.0
5.554052558509333 0.6396216019605415 0.0
1.976669571201813 0.1631348676957265 0.0
[...]
POINT_DATA 494

VECTORS Velocity float
0.0000000000000000 0.0000000000000000 0.0
0.8221141440053055 -0.1342297161200595 0.0
0.0000000000000000 0.0000000000000000 0.0
0.0000000000000000 0.0000000000000000 0.0
0.0000000000000000 0.0000000000000000 0.0
0.0000000000000000 0.0000000000000000 0.0
0.0000000000000000 0.0000000000000000 0.0
0.0000000000000000 0.0000000000000000 0.0
0.0000000000000000 0.0000000000000000 0.0
0.0000000000000000 0.0000000000000000 0.0
0.0000000000000000 0.0000000000000000 0.0
0.0000000000000000 0.0000000000000000 0.0
0.0000000000000000 0.0000000000000000 0.0
0.0000000000000000 0.0000000000000000 0.0
0.0000000000000000 0.0000000000000000 0.0
0.0000000000000000 0.0000000000000000 0.0
0.0000000000000000 0.0000000000000000 0.0
0.0000000000000000 0.0000000000000000 0.0
0.0000000000000000 0.0000000000000000 0.0
0.0000000000000000 0.0000000000000000 0.0
0.0000000000000000 0.0000000000000000 0.0
0.0000000000000000 0.0000000000000000 0.0
0.0000000000000000 0.0000000000000000 0.0
0.0000000000000000 0.0000000000000000 0.0
0.0000000000000000 0.0000000000000000 0.0
0.0000000000000000 0.0000000000000000 0.0
0.0000000000000000 0.0000000000000000 0.0
0.0000000000000000 0.0000000000000000 0.0
0.0000000000000000 0.0000000000000000 0.0
0.0000000000000000 0.0000000000000000 0.0
0.0000000000000000 0.0000000000000000 0.0
0.0000000000000000 0.0000000000000000 0.0
0.0000000000000000 0.0000000000000000 0.0
0.0000000000000000 0.0000000000000000 0.0
0.0000000000000000 0.0000000000000000 0.0
0.0000000000000000 0.0000000000000000 0.0
0.0000000000000000 0.0000000000000000 0.0
0.0000000000000000 0.0000000000000000 0.0
0.0000000000000000 0.0000000000000000 0.0
0.0000000000000000 0.0000000000000000 0.0
0.0000000000000000 0.0000000000000000 0.0
0.0000000000000000 0.0000000000000000 0.0
0.0000000000000000 0.0000000000000000 0.0
0.0000000000000000 0.0000000000000000 0.0
0.0000000000000000 0.0000000000000000 0.0
0.0000000000000000 0.0000000000000000 0.0
0.0000000000000000 0.0000000000000000 0.0
0.0000000000000000 0.0000000000000000 0.0
0.0000000000000000 0.0000000000000000 0.0
0.0000000000000000 0.0000000000000000 0.0
0.0000000000000000 0.0000000000000000 0.0
0.0000000000000000 0.0000000000000000 0.0
0.0000000000000000 0.0000000000000000 0.0
0.0000000000000000 0.0000000000000000 0.0
1.0805946854145230 0.5229802071264177 0.0
0.9941462559963151 0.1214549909093416 0.0
0.9635580604448624 -0.0860907230096569 0.0
1.0638144627121469 -0.4401727745306018 0.0
0.0000000000000000 0.0000000000000000 0.0
0.0000000000000000 0.0000000000000000 0.0
0.0000000000000000 0.0000000000000000 0.0
0.0000000000000000 0.0000000000000000 0.0
0.0000000000000000 0.0000000000000000 0.0
0.0000000000000000 0.0000000000000000 0.0
0.0000000000000000 0.0000000000000000 0.0
0.0000000000000000 0.0000000000000000 0.0
0.0000000000000000 0.0000000000000000 0.0
0.0000000000000000 0.0000000000000000 0.0
0.0000000000000000 0.0000000000000000 0.0
0.0000000000000000 0.0000000000000000 0.0
0.0000000000000000 0.0000000000000000 0.0
0.0000000000000000 0.0000000000000000 0.0
0.0000000000000000 0.0000000000000000 0.0
0.0000000000000000 0.0000000000000000 0.0
0.0000000000000000 0.0000000000000000 0.0
0.0000000000000000 0.0000000000000000 0.0
0.0000000000000000 0.0000000000000000 0.0
0.0000000000000000 0.0000000000000000 0.0
0.0000000000000000 0.0000000000000000 0.0
0.0000000000000000 0.0000000000000000 0.0
0.0000000000000000 0.0000000000000000 0.0
0.0000000000000000 0.0000000000000000 0.0
0.0000000000000000 0.0000000000000000 0.0
0.0000000000000000 0.0000000000000000 0.0
0.0000000000000000 0.0000000000000000 0.0
0.0000000000000000 0.0000000000000000 0.0
0.0000000000000000 0.0000000000000000 0.0
0.0000000000000000 0.0000000000000000 0.0
0.0000000000000000 0.0000000000000000 0.0
0.0000000000000000 0.0000000000000000 0.0
0.0000000000000000 0.0000000000000000 0.0
0.0000000000000000 0.0000000000000000 0.0
0.0000000000000000 0.0000000000000000 0.0
0.0000000000000000 0.0000000000000000 0.0
0.0000000000000000 0.0000000000000000 0.0
0.0000000000000000 0.0000000000000000 0.0
0.0000000000000000 0.0000000000000000 0.0
0.0000000000000000 0.0000000000000000 0.0
0.0000000000000000 0.0000000000000000 0.0
0.0000000000000000 0.0000000000000000 0.0
0.0000000000000000 0.0000000000000000 0.0
0.0000000000000000 0.0000000000000000 0.0
0.0000000000000000 0.0000000000000000 0.0
0.0000000000000000 0.0000000000000000 0.0
1.0000000000000000 0.0000000000000000 0.0
1.0000000000000000 0.0000000000000000 0.0
1.0000000000000000 0.0000000000000000 0.0
1.0000000000000000 0.0000000000000000 0.0
0.0000000000000000 0.0000000000000000 0.0
0.0000000000000000 0.0000000000000000 0.0
0.0000000000000000 0.0000000000000000 0.0
0.0000000000000000 0.0000000000000000 0.0
0.0000000000000000 0.0000000000000000 0.0
0.0000000000000000 0.0000000000000000 0.0
0.0000000000000000 0.0000000000000000 0.0
0.0000000000000000 0.0000000000000000 0.0
0.0000000000000000 0.0000000000000000 0.0
0.0000000000000000 0.0000000000000000 0.0
0.0000000000000000 0.0000000000000000 0.0
0.0000000000000000 0.0000000000000000 0.0
1.3968180199393474 0.0052181044414392 0.0
1.3988698319570596 0.0138348997276404 0.0
1.5135227251126135 -0.0045762555144879 0.0
1.5125428979676558 -0.0155937673563526 0.0
1.3559787886122421 0.0260710458475140 0.0
1.3549855284953416 0.0325935585541609 0.0
1.3545053301279690 -0.0820138447364328 0.0
1.3525148103896749 -0.0827480013019025 0.0
1.5099087634638877 0.0064305029588780 0.0
1.5081802547742804 -0.0034476575148725 0.0
1.4823680728911752 0.0050783122118817 0.0
1.4813936541280157 0.0014571384921920 0.0
1.5043286839646282 -0.0213185424438106 0.0
1.5058115681653832 0.0078217126913955 0.0
1.5811015302161451 0.0070228423218891 0.0
1.5784164014400985 -0.0144794109037714 0.0
1.3566092097475357 0.2383316198232276 0.0
1.3537998196871925 0.2384406592543721 0.0
1.2127986455267892 0.0142619393736938 0.0
1.3964800292327204 -0.1689520265477133 0.0
1.2117845006955836 0.0107762684663289 0.0
1.4002648656874803 -0.1674323467663605 0.0
1.5217339652060093 0.0165027063206140 0.0
1.5089947831452981 -0.0338792944906993 0.0
1.3338947885095089 0.0219166271901321 0.0
1.3277073976920164 0.0203839178810394 0.0
1.3033492098159427 -0.0130183909036853 0.0
1.2914003625981101 -0.0110402933481184 0.0
1.3172612656464231 0.0008991096744628 0.0
1.2475242762299781 -0.0124639481882583 0.0
1.2318942342172019 0.0085985442198666 0.0
1.3281031422931566 -0.0026644876639781 0.0
1.4624074131127258 0.1217244089492613 0.0
1.4624836140542918 0.1209464883392184 0.0
1.3356290049010486 -0.2101907229385398 0.0
1.3378065550409244 -0.2078065344137203 0.0
1.3912491440803068 0.2595818504957546 0.0
1.3863304026872574 0.2665815674230846 0.0
1.2177131119870017 -0.0329551824687054 0.0
1.3018799107952737 0.0041474159582199 0.0
1.2926734010255174 0.0027088013980972 0.0
1.2249981424763943 -0.0309268177903060 0.0
1.1600226192989287 -0.0343728985150950 0.0
1.1534332001109544 -0.0292862349106936 0.0
1.1741474161580767 0.0119196309781523 0.0
1.1686006938731037 0.0040730631469718 0.0
1.2566401308695245 0.0046859675421116 0.0
1.2409376983740124 -0.0145427710420960 0.0
1.2459978812600430 0.0093575298776148 0.0
1.2503647215028750 -0.0082028490867261 0.0
1.4281413058527141 -0.0145907414632060 0.0
1.3319643719126097 0.0559324606930787 0.0
1.4277697813849646 0.0168525637986581 0.0
1.3302407319437795 -0.0514660635268582 0.0
1.5793830029467868 -0.1881288363765320 0.0
1.5785973197165342 -0.1890609039273364 0.0
1.2116396714892070 -0.0251498588942108 0.0
1.2251251910259244 0.0250839586589584 0.0
1.2002449219986620 -0.0326337875209077 0.0
1.2332920262518017 0.0132398448301935 0.0
1.4248018607404072 0.0105948040423403 0.0
1.4313800166689612 -0.0103472121337127 0.0
1.2923344806706001 -0.1544531860637007 0.0
1.2838276600193814 0.1833678331037077 0.0
1.2281295493607465 0.0522931322400181 0.0
1.1908216337303408 -0.0099435473277822 0.0
1.2236762167123538 -0.0373784498449238 0.0
1.2017735897237827 0.0344789434708565 0.0
1.2931335066009910 0.0023157791770253 0.0
1.2959785149202807 -0.0073978220079079 0.0
1.1965904483046299 0.0383994879639118 0.0
1.2408686478843185 -0.0585498558002975 0.0
1.2050976492599086 0.0405354335190330 0.0
1.2322539921313895 -0.0570686983175350 0.0
1.2029497123168198 0.0655398949295958 0.0
1.1760359913119323 -0.0478822697902564 0.0
1.1521437035218935 -0.0612765774066937 0.0
1.2236107168440766 0.0538780013440065 0.0
1.1476224367202676 -0.0187289856619704 0.0
1.1467322160955982 0.0145097712751571 0.0
1.4510088625031303 0.0123627122844603 0.0
1.4505738612746637 0.0062385267842464 0.0
1.3423644024562869 0.0367610429704473 0.0
1.3373407872728666 -0.0493276458847229 0.0
0.5634671163870770 -0.0027625230506389 0.0
0.5511606698837478 -0.0027937543006189 0.0
0.6595809557095047 0.0937850922976942 0.0
0.6719771360718870 0.0937776901892692 0.0
1.4383072267468147 0.3796653406845889 0.0
1.4357338334050225 0.3804190930842388 0.0
1.4987010758570816 -0.2954858446801417 0.0
1.4994354883163090 -0.2928736569329010 0.0
0.9443505963015337 0.0091852912498507 0.0
0.9444952858467072 0.0225630544571543 0.0
1.5215133145687108 0.0189956495898972 0.0
1.5181130795948095 -0.0260373890680728 0.0
1.1774782911226629 0.1897426223045566 0.0
1.2049654496721489 -0.2635796682721059 0.0
1.3523270550146904 -0.0396253602697453 0.0
1.3553405726916636 0.0243641871531835 0.0
0.7717050818874965 -0.0093925770874621 0.0
0.7873648595122598 0.0081551018571170 0.0
1.0424513165970184 -0.0182093007190433 0.0
1.0400572115889741 -0.0235513627027300 0.0
1.0531799222971665 0.0015006926578017 0.0
1.0585922834793293 -0.0010738760960674 0.0
1.4919826381971089 -0.0155717474556884 0.0
1.4900312104498898 -0.0293965734804227 0.0
0.7538168922771317 -0.0885335740469127 0.0
0.7583987332647063 -0.0893953043805305 0.0
0.7979446623187141 0.0742619977721030 0.0
0.8035955426824483 0.0734438940229076 0.0
1.4408076767404006 0.0286669051812667 0.0
1.4413436893123568 0.0245521575412069 0.0
0.9302605425986191 -0.0928165099464716 0.0
0.9319968037915874 -0.0944718847111234 0.0
1.3307284950495881 -0.0025172481928548 0.0
1.2614945502489485 0.0147539779519354 0.0
1.0081530614653726 -0.0789229627176824 0.0
1.0085065764261476 -0.0791197779080646 0.0
1.4174236270752862 -0.0386761395423063 0.0
1.4273861652075337 -0.0425641278643984 0.0
1.3855119700995606 0.0536866708174450 0.0
1.3925554478718447 0.0589586691939952 0.0
0.8344906288074821 0.0028239653645150 0.0
0.8319024581922401 0.0022631696290538 0.0
0.7873247473309108 0.0102553574482095 0.0
0.7828620692200324 0.0077358866883636 0.0
0.8390503587781614 0.0320829393900335 0.0
0.8566089881283546 -0.0559228044297766 0.0
0.7724525813006606 0.0651714214640738 0.0
0.7731907657112911 0.0640471676178800 0.0
1.5280293674804259 -0.0180329463172140 0.0
1.5355501649107635 0.0120809992792798 0.0
1.4639180680720294 -0.0092286321533015 0.0
1.4630613698125885 -0.0135329222263258 0.0
0.7542854664004236 0.0031457484141891 0.0
0.7694368500201182 0.0153777214580352 0.0
0.7583377540045803 -0.0073468517829516 0.0
0.7526929279892586 0.0072185451181298 0.0
1.5578222735222311 0.0071287900629019 0.0
1.5613601099024217 -0.0458951128445244 0.0
1.4285795954632095 -0.0356216515027745 0.0
1.4239020831999374 -0.0320147795656599 0.0
0.7555708520472594 -0.0091779152687975 0.0
0.6851156857548893 0.0151338388888000 0.0
0.6929917444709119 -0.0154782507024748 0.0
0.7448998708795938 0.0084307809058766 0.0
0.8496968253601839 0.0318072250884559 0.0
0.8264107343265884 -0.0184163615267146 0.0
0.8527517237089604 0.0219057073790223 0.0
0.8366861037383257 -0.0256964154501116 0.0
1.3922607584116953 0.0143132674053720 0.0
1.3992277024737931 -0.0114208645808562 0.0
1.3902837164974913 0.0071528284293543 0.0
1.4016813288097958 -0.0194706220585907 0.0
1.4987861868465420 0.0121812875005079 0.0
1.4932020321895603 -0.0146874301326060 0.0
1.3188427632549080 0.0143972377191231 0.0
1.3341255488138026 -0.0357080491470826 0.0
1.3843146372329522 0.0005548650196628 0.0
1.3865020117004752 -0.0032952035165132 0.0
0.7664438998296431 -0.0195415814584901 0.0
0.7045875215238394 0.0242287064105403 0.0
0.7630605664982177 -0.0211522952255102 0.0
0.7091797118373048 0.0241636585669899 0.0
0.6181475106633382 -0.1022769300172553 0.0
0.6192297251505621 -0.0980278565773769 0.0
1.2817441826114579 0.0992271863475427 0.0
1.2811735713082464 0.0986031136193612 0.0
1.3844545678546294 -0.0074719213166053 0.0
1.3546285029884542 -0.0220771488528290 0.0
1.3570828082417945 0.0201218177542028 0.0
1.3875914019153632 0.0065500136574527 0.0
0.8132945323857761 -0.0578410464812631 0.0
0.8130145150756467 0.0645031247378759 0.0
1.0678787901750604 -0.1154349169390832 0.0
1.0647041610271211 -0.1062238520446226 0.0
1.0842643736455937 0.1534071190216885 0.0
1.0827021931932612 0.1593297926311396 0.0
0.8724891842685469 -0.0415993535460581 0.0
0.8466948899269576 0.0511980287101115 0.0
0.8648435115835336 -0.0390191041793843 0.0
0.8549707360139864 0.0545351117412168 0.0
1.4822431424071492 -0.0124678669217385 0.0
1.4807134998349427 -0.0137721116175998 0.0
0.7163181259772150 -0.0196830705822309 0.0
0.7411544680772946 0.0028508095130170 0.0
0.6940203313691918 0.0203076575117297 0.0
0.7555824129350477 0.0373892301095725 0.0
0.6966238954611620 -0.0061339189036660 0.0
0.6990128383315994 0.0047227352106708 0.0
1.3887331553967903 -0.1443399112308983 0.0
1.3821514677888520 -0.1443833011950574 0.0
1.3172190603703657 0.1911125049396237 0.0
1.3126122947935337 0.1828817416352841 0.0
0.5791770476635938 -0.0532970560838438 0.0
0.5803694427354155 -0.0533763715657941 0.0
0.5894715163180136 0.0508907487553398 0.0
0.5913161665227146 0.0496723756455820 0.0
1.3808101396217038 -0.0068215072179643 0.0
1.3874820039495293 -0.0028333096362155 0.0
1.2928587501935733 -0.1064589718889436 0.0
1.2963932553020343 -0.1073613216917999 0.0
1.3459718168979573 0.1076661355270371 0.0
1.3407629277612358 0.1087681952590268 0.0
0.8786047553419989 0.0394844703332023 0.0
0.7916482953265811 -0.1008705826297934 0.0
0.8690208842712157 0.0461364669141324 0.0
0.8036252364508265 -0.0916578183568018 0.0
1.3691712744769775 -0.0337783965666329 0.0
1.3448420123216112 0.0384571674194907 0.0
1.3618858554942823 -0.0309621680735249 0.0
1.3512535091842588 0.0417243691340079 0.0
1.4519181915974473 -0.0066196998043671 0.0
1.4497454332991269 -0.0161448646142103 0.0
0.6837133242322166 -0.0035586788923682 0.0
0.6897719447774381 0.0092348086044219 0.0
1.3639039192458358 0.0590341077525924 0.0
1.3698354377131154 0.0493511383146187 0.0
1.4908434704341529 -0.0361172010899121 0.0
1.4738450143860196 0.0376885736888508 0.0
0.7653888911525896 0.0610836987235732 0.0
0.7587200953907449 0.0655587091353198 0.0
1.4273038955885391 -0.0340793818972313 0.0
1.3977993393007424 0.0372320670052164 0.0
1.4009801974828784 -0.0529447667394062 0.0
1.4241931394212752 0.0125962143442329 0.0
1.5616232780153456 -0.0067529671193607 0.0
1.5743307110225757 0.0002493536976429 0.0
0.5378200750054954 -0.0012689115958779 0.0
0.5387290799806362 0.0028629127435414 0.0
1.4879536345534523 -0.0160691869281025 0.0
1.4891121623275103 0.0154768381588735 0.0
0.9426193895956568 0.2235043419536718 0.0
0.9141859466481090 -0.2188367003733249 0.0
1.3048456374210027 -0.0090616808464584 0.0
1.3105167538646694 0.0033846620009316 0.0
1.3288559493097583 0.0148942570774937 0.0
1.3449764837772857 -0.0387086123637285 0.0
1.3245665811512128 0.0053283270711390 0.0
1.3211865947700940 0.0022132278481891 0.0
1.1881856179451076 -0.0943372976411643 0.0
1.1887550039552852 -0.0953524765960075 0.0
1.3684049231293023 -0.0321111467806828 0.0
1.3452373527610646 0.0264613704910097 0.0
1.4301775438685715 -0.0120473674183076 0.0
1.4233557847012372 0.0108283254416361 0.0
1.3741202262976075 -0.0355587915287558 0.0
1.3510756634139300 0.0294851732206856 0.0
0.4831007299867036 0.0621946268678328 0.0
0.4836655404646941 0.0586338975275733 0.0
0.4779897797545333 -0.0453179262954616 0.0
0.4744920194556218 -0.0481286620436601 0.0
1.4319727784043932 -0.2640680933565681 0.0
1.4329910022397940 -0.2634779102302869 0.0
0.4303513597968521 0.0031823186198204 0.0
0.4361375342278254 -0.0064354054943200 0.0
1.5216858682817109 0.2669203399674139 0.0
1.5220254053736499 0.2659893238861200 0.0
0.5955771500659505 0.0932231985948114 0.0
0.5962848158475472 0.0927092499777166 0.0
1.4858031171554005 0.0169819131971168 0.0
1.4854690207270891 -0.0172679257443607 0.0
1.3280554560838442 -0.0242653643235304 0.0
1.3345349003925540 0.0275526780481971 0.0
1.4014149979949890 -0.2681459598139543 0.0
1.4000251913792472 -0.2743784630465245 0.0
1.3667786947337448 0.3830779290726066 0.0
1.3730115668883700 0.3740090167262102 0.0
1.4575376115099916 -0.0028490146147438 0.0
1.4622399514832591 -0.0060177447081146 0.0
0.5249646013857127 0.0621292002083194 0.0
0.5059888422706049 -0.0659904784351512 0.0
0.5153258867833992 0.0632601502036342 0.0
0.5160571365401432 -0.0642340834740827 0.0
0.4769403212611548 0.0236771143044135 0.0
0.4917616285469129 0.0235680041160269 0.0
0.5258943117487899 -0.0130762237437061 0.0
0.5408579772148276 -0.0144344447580606 0.0
1.1341394588695544 -0.1601321940181899 0.0
1.1426894754462229 -0.1541740532841297 0.0
1.1673000456416114 0.1957293653437932 0.0
1.1599110720142565 0.2023018642789650 0.0
1.1977109321367947 -0.2608779893060104 0.0
1.1781647751651176 0.2576764529911308 0.0
1.3998151426946741 0.0225835835454635 0.0
1.3996744282777083 0.0230541155659839 0.0
0.5479048761256753 -0.0058608577089950 0.0
0.5219190820347713 0.0001819770623838 0.0
0.5534848940473855 0.0087805842417462 0.0
0.5290043627859583 0.0024895652678268 0.0
1.4303169442173393 -0.0047995371180100 0.0
1.4253213996025031 0.0007208778949593 0.0
1.3222170178385964 -0.0172668279822397 0.0
1.3290371522911575 -0.0187270486473196 0.0
0.8861374145997600 0.2576294975767421 0.0
0.9401986149934993 -0.2404017257584065 0.0
1.1081188148900929 0.0904988619330603 0.0
1.1047738384761467 0.0934377601218510 0.0
1.1242625867711782 -0.1182974065696586 0.0
1.1164987720279864 -0.1177535722004832 0.0
0.6488069399108560 -0.1298165989688548 0.0
0.6591186589984165 0.1350668261741260 0.0
0.3488191271540025 -0.0248369418829897 0.0
0.3489837722911960 -0.0236113743563224 0.0
0.3559480467055174 -0.0088124469061115 0.0
0.3569844034762449 -0.0086758119664038 0.0
0.3931299850551563 -0.0100626274163145 0.0
0.3942949000615147 0.0101844819938352 0.0
1.2198858247174902 0.3056824154198413 0.0
1.1722406548030742 -0.2531389361220915 0.0
0.5336316056007948 -0.0620687206001299 0.0
0.5276913908794379 0.0752292635735161 0.0
0.5293492848958447 -0.0609528348239688 0.0
0.5321469811947546 0.0769293645874256 0.0
1.4681408898041812 0.0404292677463558 0.0
1.4751555949511013 -0.0517564043683969 0.0
0.4730417861234949 0.0702552209873984 0.0
0.5333973982748880 -0.1161868923091861 0.0
0.9373977323753812 0.0291118029107646 0.0
0.9358130668723825 0.0297242720783764 0.0
0.9449467812228025 -0.0245513761679559 0.0
0.9443440911479238 -0.0227455722576780 0.0
0.8613168778732043 0.0128810134324256 0.0
0.8616396149774125 0.0228687587590601 0.0
0.5711870133758765 0.0542510243620243 0.0
0.5429001728803847 -0.0637409128516179 0.0
0.5677460951039960 0.0537603385789574 0.0
0.5446986998569702 -0.0641574115356518 0.0
1.4691660344358433 -0.0031801809735613 0.0
1.4682006347812100 -0.0015139936418074 0.0
0.4649254194988242 -0.0757233225172175 0.0
0.5011783103608423 0.0512122814489671 0.0
0.4905307519953305 0.0624646616972653 0.0
0.4777505770167770 -0.0634746102277028 0.0
1.1428776029946788 0.0066779855566340 0.0
1.1589973653600838 0.0132637918461163 0.0
1.1799224345462889 -0.0383410989736080 0.0
1.1748409040193706 -0.0369491113085976 0.0
1.3224552356673527 -0.0089430141426972 0.0
1.3154787115926905 -0.0021627726707930 0.0
1.3368973975934053 -0.0537036047155629 0.0
1.3424650643568337 -0.0425454290049676 0.0
1.1566945948338252 -0.0761420683867588 0.0
1.1618955608842296 -0.0770079913877395 0.0
0.5644788772098430 -0.0022079404150673 0.0
0.5553082391830153 0.0047522967926055 0.0
0.5624033183212037 0.0027589643320132 0.0
0.5565703915874279 -0.0044762508455121 0.0