# vtk DataFile Version 3.0
LucasCarvalhoTCC Results
ASCII

DATASET POLYDATA
FIELD FieldData 1
TIME 1 1 double
0.1

POINTS 494 float
0.0 0.0 0.0
8.0 0.0 0.0
8.0 1.0 0.0
0.0 1.0 0.0
4.0 0.0 0.0
4.0 1.0 0.0
4.0 0.35 0.0
4.0 0.65 0.0
0.2010296266416496 1.0 0.0
0.3986915135488555 1.0 0.0
0.5930420631591132 1.0 0.0
0.7841367769318693 1.0 0.0
0.9720301907499852 1.0 0.0
1.156775924166146 1.0 0.0
1.33842670621592 1.0 0.0
1.517034389070868 1.0 0.0
1.69264994674003 1.0 0.0
1.865323550794866 1.0 0.0
2.035104414722059 1.0 0.0
2.202040983487818 1.0 0.0
2.366180993436638 1.0 0.0
2.527571282866703 1.0 0.0
2.686257831390245 1.0 0.0
2.842286022819771 1.0 0.0
2.995700353514032 1.0 0.0
3.146544637914273 1.0 0.0
3.294861880721452 1.0 0.0
3.440694398353104 1.0 0.0
3.58408394609007 1.0 0.0
3.725071294102791 1.0 0.0
3.863696788294668 1.0 0.0
4.136303211705004 1.0 0.0
4.274928705896546 1.0 0.0
4.415916053908917 1.0 0.0
4.55930560164552 1.0 0.0
4.7051381192768 1.0 0.0
4.853455362083593 1.0 0.0
5.004299646483437 1.0 0.0
5.157713977177285 1.0 0.0
5.313742168606385 1.0 0.0
5.472428717129489 1.0 0.0
5.6338190065591 1.0 0.0
5.797959016507455 1.0 0.0
5.96489558527273 1.0 0.0
6.134676449200184 1.0 0.0
6.307350053255487 1.0 0.0
6.482965610925135 1.0 0.0
6.661573293780584 1.0 0.0
6.843224075830887 1.0 0.0
7.027969809247587 1.0 0.0
7.215863223066262 1.0 0.0
7.4069579368396 1.0 0.0
7.601308486450315 1.0 0.0
7.798970373357896 1.0 0.0
8.0 0.7999999999999996 0.0
8.0 0.6000000000013874 0.0
8.0 0.4000000000016649 0.0
8.0 0.2000000000008324 0.0
7.798970373357898 0.0 0.0
7.601308486450317 0.0 0.0
7.406957936839601 0.0 0.0
7.215863223066265 0.0 0.0
7.02796980924759 0.0 0.0
6.843224075830888 0.0 0.0
6.661573293780592 0.0 0.0
6.482965610925139 0.0 0.0
6.307350053255492 0.0 0.0
6.134676449200188 0.0 0.0
5.964895585272735 0.0 0.0
5.797959016507459 0.0 0.0
5.633819006559103 0.0 0.0
5.472428717129493 0.0 0.0
5.313742168606389 0.0 0.0
5.157713977177288 0.0 0.0
5.004299646483441 0.0 0.0
4.853455362083597 0.0 0.0
4.705138119276803 0.0 0.0
4.559305601645523 0.0 0.0
4.415916053908919 0.0 0.0
4.274928705896549 0.0 0.0
4.136303211705007 0.0 0.0
3.863696788294383 0.0 0.0
3.725071294102209 0.0 0.0
3.584083946089184 0.0 0.0
3.440694398352564 0.0 0.0
3.29486188072223 0.0 0.0
3.146544637916415 0.0 0.0
2.995700353517581 0.0 0.0
2.842286022824779 0.0 0.0
2.68625783139676 0.0 0.0
2.527571282874774 0.0 0.0
2.366180993446318 0.0 0.0
2.202040983499156 0.0 0.0
2.035104414735112 0.0 0.0
1.865323550807426 0.0 0.0
1.692649946751479 0.0 0.0
1.517034389081164 0.0 0.0
1.338426706225015 0.0 0.0
1.156775924174005 0.0 0.0
0.9720301907565596 0.0 0.0
0.784136776937109 0.0 0.0
0.5930420631629705 0.0 0.0
0.3986915135514271 0.0 0.0
0.2010296266429896 0.0 0.0
0.0 0.199999999999558 0.0
0.0 0.3999999999989746 0.0
0.0 0.5999999999989464 0.0
0.0 0.7999999999994731 0.0
4.065082561150232 0.3648546699507293 0.0
4.117274722996153 0.4064765305061043 0.0
4.146239186965635 0.4666218605127571 0.0
4.146239186588658 0.5333781411388893 0.0
4.117274722147235 0.5935234705584039 0.0
4.065082560620447 0.6351453303044018 0.0
3.934917439190226 0.6351453302132268 0.0
3.882725277520537 0.5935234701418048 0.0
3.853760813071839 0.5333781396514286 0.0
3.853760813263242 0.4666218595099774 0.0
3.882725277782338 0.4064765295299076 0.0
3.934917439246251 0.3648546697597932 0.0
3.348071016817302 0.5037366844559412 0.0
4.65817771841185 0.4813089492125461 0.0
5.148432135339639 0.5000000000000013 0.0
2.851567863014233 0.5000000000000465 0.0
4.406326506211093 0.3072680842959042 0.0
3.575604791543614 0.6706702532911111 0.0
4.424395205595821 0.6706702556565258 0.0
3.593673497058965 0.3072680820819204 0.0
5.648652107845511 0.5000000000000006 0.0
2.351347890458042 0.4999999999998563 0.0
1.851146954963573 0.4999999999998219 0.0
6.148853043290459 0.4999999999999989 0.0
6.65089532386231 0.5241211434250735 0.0
1.349104674975677 0.4758788558671475 0.0
7.150713697794147 0.4858064203922342 0.0
0.8492863006035025 0.4858064203396458 0.0
4.216343713145164 0.2287135668575249 0.0
3.7836562881134 0.7712864338025908 0.0
4.346988371127422 0.5000000019594898 0.0
4.213775907987267 0.7756803165215952 0.0
3.653011628408684 0.4999999990051173 0.0
3.786224091202296 0.224319683220954 0.0
7.572712389010231 0.5763628491757339 0.0
0.4272876103144935 0.5763628498169726 0.0
4.881741322202974 0.3185523670790996 0.0
3.118258676783759 0.6814476337404539 0.0
3.126854924363118 0.2792890251323842 0.0
4.873145074373641 0.7207109754187309 0.0
5.398381996912613 0.291094588046412 0.0
5.396092528392672 0.7230702977293901 0.0
2.603907471650227 0.7230702981371074 0.0
2.601618001742297 0.2910945873520305 0.0
4.065645388412852 0.1903894420877926 0.0
3.934354612281609 0.8096105573695707 0.0
4.268393145079946 0.6292513280674802 0.0
3.731606853978594 0.3707486723017213 0.0
4.265062587797852 0.3723525870906427 0.0
3.734937412407246 0.6276474138958879 0.0
5.89991820844496 0.720584760457478 0.0
5.899661142431216 0.2940789491313893 0.0
2.100338856207466 0.7059210507243335 0.0
2.100081790085733 0.2794152396968363 0.0
4.648216390708278 0.2460745758417431 0.0
3.350865525112209 0.7519279174007294 0.0
3.351783614314077 0.2460745727859678 0.0
4.649134469923633 0.7519279206208029 0.0
6.386000070083336 0.2800687217561524 0.0
6.399946740387701 0.7091877900019353 0.0
1.613999929083956 0.7199312783619409 0.0
1.600053258667474 0.2908122092889953 0.0
1.099018086220021 0.3101534564461602 0.0
1.099018086220183 0.6898465435530818 0.0
6.900981912171285 0.3101534566801202 0.0
6.900981912171287 0.689846543319878 0.0
3.934891793257755 0.2336799984692873 0.0
4.065108206439434 0.7663200008196746 0.0
5.133077706310633 0.254681732561614 0.0
5.131620328745691 0.7509194919064351 0.0
2.866922291796803 0.7453182673725732 0.0
2.868379670398546 0.2490805081265555 0.0
0.5973224633027379 0.3123440263675117 0.0
7.402677535116692 0.3123440263206204 0.0
7.70928508668797 0.2984218335093966 0.0
0.2907149122204558 0.2984218350042115 0.0
2.359042531710287 0.2526358364218651 0.0
2.362552667743482 0.7498876177132479 0.0
5.640957467742433 0.2526358368965552 0.0
5.637447332034727 0.7498876177447886 0.0
7.330771635020911 0.7204300868765696 0.0
0.6692283641678903 0.7204300870263377 0.0
6.141991504218947 0.7500064293114952 0.0
6.143214654121697 0.2541610692540839 0.0
1.858008494097047 0.2499935706645152 0.0
1.856785344746094 0.7458389307817799 0.0
1.360037479834015 0.7503851535261052 0.0
1.363297687800482 0.2332108063209677 0.0
6.636702311691573 0.7667891933666813 0.0
6.639962519949044 0.2496148464378299 0.0
7.14328150074831 0.2292696686424185 0.0
0.8567184978980538 0.2292696684503961 0.0
4.845173759433459 0.5000000012080886 0.0
3.15482623877425 0.4999999993865263 0.0
3.514470413944982 0.5755907957035395 0.0
4.485529584365944 0.5755907996488695 0.0
4.350214515329574 0.8947484376274254 0.0
3.64978548377064 0.1052515623441257 0.0
4.356280753270322 0.1397878825788729 0.0
3.643719248073251 0.8602121180766233 0.0
4.157657982820168 0.3023031440803671 0.0
3.842342017851872 0.6976968563131654 0.0
4.149794964153143 0.6947625877680722 0.0
3.850205035403508 0.3052374120341299 0.0
4.252863769441745 0.5000000013253333 0.0
3.747136230269581 0.4999999993774377 0.0
2.66150837620265 0.4835883053501762 0.0
5.338491622258749 0.4835883052760253 0.0
7.732076714471282 0.7613785341653052 0.0
0.267923285219987 0.7613785345749642 0.0
3.482582425594127 0.3988584940714734 0.0
4.517417574829351 0.3988584973195787 0.0
7.120961454429095 0.7969630876933931 0.0
0.8790385446795201 0.7969630878928393 0.0
4.524178509919695 0.1937066442020419 0.0
3.472973035782958 0.803602443762734 0.0
4.527026959328886 0.8036024455277256 0.0
3.475821495314308 0.1937066425220846 0.0
5.834485749168302 0.4775259269822466 0.0
2.16551424934095 0.5224740729963462 0.0
4.803832126993392 0.8343163881584211 0.0
3.196167871756218 0.1656836120733276 0.0
3.196167870279283 0.834316388182051 0.0
4.803832130306974 0.1656836112805605 0.0
1.646902821176459 0.5088844228822333 0.0
6.35309717778631 0.4911155766888507 0.0
4.128745436683365 0.8608937921704661 0.0
3.871254562700506 0.1391062074145501 0.0
7.783519314041498 0.4824599318584197 0.0
0.2164806854160975 0.4824599323519634 0.0
3.981228286637499 0.1341601386487245 0.0
4.018771713398118 0.8658398609794804 0.0
4.757705393330306 0.6277793253200102 0.0
3.245404476813698 0.3720431195654205 0.0
3.262406961538709 0.609092082228193 0.0
4.738552632749474 0.3854106153034425 0.0
4.980576921401999 0.1828043249223437 0.0
3.019423077460087 0.8171956749482756 0.0
4.975386875116307 0.8288560892267683 0.0
3.024613123995747 0.1711439108946455 0.0
7.537862127958827 0.7914398748884439 0.0
0.46213787149577 0.7914398749623154 0.0
4.150965283491015 0.1232311208167031 0.0
3.849034718225983 0.8767688792466098 0.0
0.6330166515036239 0.5212993800799176 0.0
7.366983347335347 0.5212993798709434 0.0
5.001451172914062 0.4591396125040952 0.0
2.998548825585332 0.5408603877155073 0.0
5.250532135494552 0.1623854812497458 0.0
5.24999687257574 0.8404382486850067 0.0
2.749794930508214 0.8396380739052673 0.0
2.749676059914328 0.161585306286623 0.0
1.150631951549359 0.5017906253149568 0.0
6.85747267660715 0.5137706215776152 0.0
2.938770240933895 0.3859183074771494 0.0
5.061229757952985 0.6140816927005173 0.0
5.521883200863776 0.8371838481144578 0.0
5.520780843451154 0.1567733764659754 0.0
2.479219155991939 0.1567733759623464 0.0
2.478116798894765 0.8371838481096507 0.0
2.208224060227917 0.1725929992863016 0.0
2.214655190115911 0.821187355218689 0.0
5.791775938918927 0.8274070011383262 0.0
5.785558009721889 0.1789659155514431 0.0
5.243140500145841 0.3651007420679131 0.0
5.247758683472709 0.6318228659349833 0.0
2.748336099792684 0.6332079670712092 0.0
2.766145970608876 0.3583112578457802 0.0
2.500794992947401 0.4517155340697119 0.0
5.499205006433885 0.4517155344186723 0.0
3.472119223331378 0.69283875816516 0.0
4.527880773131323 0.6928387614752662 0.0
2.445947440949104 0.6396216022327238 0.0
5.554052558509333 0.6396216019605415 0.0
1.976669571201813 0.1631348676957265 0.0
[...]
POINT_DATA 494

VECTORS Velocity float
0.0000000000000000 0.0000000000000000 0.0
0.9011980742186565 -0.0519627043322593 0.0
0.0000000000000000 0.0000000000000000 0.0
0.0000000000000000 0.0000000000000000 0.0
0.0000000000000000 0.0000000000000000 0.0
0.0000000000000000 0.0000000000000000 0.0
0.0000000000000000 0.0000000000000000 0.0
0.0000000000000000 0.0000000000000000 0.0
0.0000000000000000 0.0000000000000000 0.0
0.0000000000000000 0.0000000000000000 0.0
0.0000000000000000 0.0000000000000000 0.0
0.0000000000000000 0.0000000000000000 0.0
0.0000000000000000 0.0000000000000000 0.0
0.0000000000000000 0.0000000000000000 0.0
0.0000000000000000 0.0000000000000000 0.0
0.0000000000000000 0.0000000000000000 0.0
0.0000000000000000 0.0000000000000000 0.0
0.0000000000000000 0.0000000000000000 0.0
0.0000000000000000 0.0000000000000000 0.0
0.0000000000000000 0.0000000000000000 0.0
0.0000000000000000 0.0000000000000000 0.0
0.0000000000000000 0.0000000000000000 0.0
0.0000000000000000 0.0000000000000000 0.0
0.0000000000000000 0.0000000000000000 0.0
0.0000000000000000 0.0000000000000000 0.0
0.0000000000000000 0.0000000000000000 0.0
0.0000000000000000 0.0000000000000000 0.0
0.0000000000000000 0.0000000000000000 0.0
0.0000000000000000 0.0000000000000000 0.0
0.0000000000000000 0.0000000000000000 0.0
0.0000000000000000 0.0000000000000000 0.0
0.0000000000000000 0.0000000000000000 0.0
0.0000000000000000 0.0000000000000000 0.0
0.0000000000000000 0.0000000000000000 0.0
0.0000000000000000 0.0000000000000000 0.0
0.0000000000000000 0.0000000000000000 0.0
0.0000000000000000 0.0000000000000000 0.0
0.0000000000000000 0.0000000000000000 0.0
0.0000000000000000 0.0000000000000000 0.0
0.0000000000000000 0.0000000000000000 0.0
0.0000000000000000 0.0000000000000000 0.0
0.0000000000000000 0.0000000000000000 0.0
0.0000000000000000 0.0000000000000000 0.0
0.0000000000000000 0.0000000000000000 0.0
0.0000000000000000 0.0000000000000000 0.0
0.0000000000000000 0.0000000000000000 0.0
0.0000000000000000 0.0000000000000000 0.0
0.0000000000000000 0.0000000000000000 0.0
0.0000000000000000 0.0000000000000000 0.0
0.0000000000000000 0.0000000000000000 0.0
0.0000000000000000 0.0000000000000000 0.0
0.0000000000000000 0.0000000000000000 0.0
0.0000000000000000 0.0000000000000000 0.0
0.0000000000000000 0.0000000000000000 0.0
1.0722107689993732 0.2640884913678575 0.0
0.9920219524402066 0.0335680587110044 0.0
0.9965173396698825 -0.0141493250175154 0.0
1.0398127152010079 -0.1908735128108486 0.0
0.0000000000000000 0.0000000000000000 0.0
0.0000000000000000 0.0000000000000000 0.0
0.0000000000000000 0.0000000000000000 0.0
0.0000000000000000 0.0000000000000000 0.0
0.0000000000000000 0.0000000000000000 0.0
0.0000000000000000 0.0000000000000000 0.0
0.0000000000000000 0.0000000000000000 0.0
0.0000000000000000 0.0000000000000000 0.0
0.0000000000000000 0.0000000000000000 0.0
0.0000000000000000 0.0000000000000000 0.0
0.0000000000000000 0.0000000000000000 0.0
0.0000000000000000 0.0000000000000000 0.0
0.0000000000000000 0.0000000000000000 0.0
0.0000000000000000 0.0000000000000000 0.0
0.0000000000000000 0.0000000000000000 0.0
0.0000000000000000 0.0000000000000000 0.0
0.0000000000000000 0.0000000000000000 0.0
0.0000000000000000 0.0000000000000000 0.0
0.0000000000000000 0.0000000000000000 0.0
0.0000000000000000 0.0000000000000000 0.0
0.0000000000000000 0.0000000000000000 0.0
0.0000000000000000 0.0000000000000000 0.0
0.0000000000000000 0.0000000000000000 0.0
0.0000000000000000 0.0000000000000000 0.0
0.0000000000000000 0.0000000000000000 0.0
0.0000000000000000 0.0000000000000000 0.0
0.0000000000000000 0.0000000000000000 0.0
0.0000000000000000 0.0000000000000000 0.0
0.0000000000000000 0.0000000000000000 0.0
0.0000000000000000 0.0000000000000000 0.0
0.0000000000000000 0.0000000000000000 0.0
0.0000000000000000 0.0000000000000000 0.0
0.0000000000000000 0.0000000000000000 0.0
0.0000000000000000 0.0000000000000000 0.0
0.0000000000000000 0.0000000000000000 0.0
0.0000000000000000 0.0000000000000000 0.0
0.0000000000000000 0.0000000000000000 0.0
0.0000000000000000 0.0000000000000000 0.0
0.0000000000000000 0.0000000000000000 0.0
0.0000000000000000 0.0000000000000000 0.0
0.0000000000000000 0.0000000000000000 0.0
0.0000000000000000 0.0000000000000000 0.0
0.0000000000000000 0.0000000000000000 0.0
0.0000000000000000 0.0000000000000000 0.0
0.0000000000000000 0.0000000000000000 0.0
0.0000000000000000 0.0000000000000000 0.0
1.0000000000000000 0.0000000000000000 0.0
1.0000000000000000 0.0000000000000000 0.0
1.0000000000000000 0.0000000000000000 0.0
1.0000000000000000 0.0000000000000000 0.0
0.0000000000000000 0.0000000000000000 0.0
0.0000000000000000 0.0000000000000000 0.0
0.0000000000000000 0.0000000000000000 0.0
0.0000000000000000 0.0000000000000000 0.0
0.0000000000000000 0.0000000000000000 0.0
0.0000000000000000 0.0000000000000000 0.0
0.0000000000000000 0.0000000000000000 0.0
0.0000000000000000 0.0000000000000000 0.0
0.0000000000000000 0.0000000000000000 0.0
0.0000000000000000 0.0000000000000000 0.0
0.0000000000000000 0.0000000000000000 0.0
0.0000000000000000 0.0000000000000000 0.0
1.1151995516344715 0.0026343574466745 0.0
1.1159868470408794 0.0010784673280677 0.0
1.1373913901420911 -0.0008008501413863 0.0
1.1387532982840618 -0.0013494155779431 0.0
1.0911460879717845 0.0235354966649510 0.0
1.0846586871297978 0.0271195751407945 0.0
1.0981566477650158 -0.0234694805071084 0.0
1.1059393228321051 -0.0183489351136677 0.0
1.1430345682702330 0.0000423185270358 0.0
1.1430305795767983 0.0003353544491002 0.0
1.1392417109059081 0.0009425534724207 0.0
1.1392763478141188 -0.0000923832940154 0.0
1.1439900843410140 -0.0050541449018951 0.0
1.1460109156565952 0.0004876354094947 0.0
1.1556220621822080 -0.0007190074112610 0.0
1.1553135926744202 -0.0014296808825568 0.0
1.2324810401366668 0.0463140906613789 0.0
1.2271229547136977 0.0532934960227647 0.0
1.0797202299171251 -0.0024103554789599 0.0
1.2124850389551021 -0.0467588107100390 0.0
1.0794761839924720 0.0069221465716118 0.0
1.2176789125846876 -0.0409800945464126 0.0
1.1864302198288650 0.0160887390539841 0.0
1.1913930528365115 -0.0197748853664656 0.0
1.1612503235738507 0.0067864365486538 0.0
1.1495905278439735 0.0089680207971579 0.0
1.1724740913717235 -0.0032092264508708 0.0
1.1587850562534976 -0.0041930704366886 0.0
1.2347393062509211 -0.0030568561556707 0.0
1.2320415916454104 -0.0044428621537861 0.0
1.2301993886315030 0.0035312778393532 0.0
1.2362350224042702 0.0019146941046591 0.0
1.2891044160652056 0.0572847432135164 0.0
1.2874899514870337 0.0592963854360711 0.0
1.1114038986132753 -0.0725887621884423 0.0
1.1118024692872002 -0.0594922207213456 0.0
1.0966144669102409 0.0658671154212257 0.0
1.0981982860618764 0.0802246633087039 0.0
1.2056151632747312 -0.0131234430916414 0.0
1.2131928049949352 0.0008672792249564 0.0
1.1997359020419109 0.0004228305148153 0.0
1.2216531423649302 -0.0143130945304792 0.0
1.1614264436831594 0.0028170203784439 0.0
1.1461487061254276 0.0040530427239628 0.0
1.1647700643367038 -0.0051783712087634 0.0
1.1489180508117489 -0.0070780718956423 0.0
1.1860527750353944 0.0022767325362708 0.0
1.1599739862920284 0.0004543852009311 0.0
1.1718418020021912 0.0039490602991794 0.0
1.1732325185483430 0.0019190348409288 0.0
1.2624845725577392 0.0022254612129230 0.0
1.2475713646680096 0.0202539873096487 0.0
1.2615179067778770 -0.0073038685292833 0.0
1.2497682104692653 -0.0247435745101487 0.0
1.2667496775907363 -0.0572491053414745 0.0
1.2678342042930866 -0.0606582249757658 0.0
1.2246152657056757 0.0260700676958042 0.0
1.2039007601790153 -0.0286344467121724 0.0
1.2071655679793676 0.0215076400583798 0.0
1.2216435202247102 -0.0327097866391543 0.0
1.2664911547180626 -0.0130621221636415 0.0
1.2671124474558586 0.0083507594437469 0.0
1.2097125508682904 -0.0722622163617192 0.0
1.2322090984048841 0.0383810498155401 0.0
1.2365642514154234 0.0097006332644780 0.0
1.2215536863404015 -0.0135566324413640 0.0
1.2357685120605724 -0.0045580929610013 0.0
1.2204307805049441 0.0184150866036503 0.0
1.2220918733283739 0.0054322857635662 0.0
1.2226427691024004 -0.0070132146223585 0.0
1.2159873732005977 0.0239526917277851 0.0
1.2325875097040950 -0.0133538582448974 0.0
1.2330708763288396 0.0247104979258327 0.0
1.2162151638776166 -0.0136701121421440 0.0
1.2147453798030050 0.0357312192309125 0.0
1.2410448590888268 -0.0387897462411638 0.0
1.2234742443409958 -0.0455487968563723 0.0
1.2321835066148197 0.0297841268717413 0.0
1.2513103398144740 0.0001282248210943 0.0
1.2502940946597327 -0.0019625106434913 0.0
1.1195136879833147 -0.0001962243602405 0.0
1.1186429401945808 0.0021281351088001 0.0
1.1125211848507079 0.0106654056713905 0.0
1.1066858251580691 -0.0117998965016324 0.0
0.8723011014813628 -0.0161698497428745 0.0
0.8751313950611084 -0.0137362197440757 0.0
0.9271064851027250 0.0421171953097945 0.0
0.9239430691063668 0.0433508596601883 0.0
1.1625721450984237 0.1509680981946656 0.0
1.1687251040407773 0.1601154467681175 0.0
1.1819324002251046 -0.1354188256362916 0.0
1.1755111134469829 -0.1273335626738872 0.0
0.9901778015856424 -0.0070650333506226 0.0
0.9907474097286328 0.0130032481708204 0.0
1.1217574324407003 -0.0008181432724531 0.0
1.1214190161058462 0.0002553038289972 0.0
1.2031087201708679 0.0862132631668350 0.0
1.2068848119676463 -0.0768389505427346 0.0
1.1132588887471284 -0.0039760451321484 0.0
1.1125981123557771 0.0028635946059605 0.0
0.9881316398857156 0.0059538960364842 0.0
0.9901763244305952 -0.0066536678007786 0.0
1.1939977102946981 0.0114089159854666 0.0
1.1774958331432408 0.0074738103908682 0.0
1.1825437543837625 -0.0170726935796369 0.0
1.2015752254093637 -0.0190326061986040 0.0
1.1296139861256669 -0.0005154296770392 0.0
1.1287909608361748 -0.0019589699583671 0.0
0.9959389389870670 -0.0270480248835758 0.0
1.0132977214738557 -0.0259555271790625 0.0
1.0087041068040741 0.0308267721996966 0.0
1.0256933037413352 0.0292568093701859 0.0
1.1205991156345319 0.0018299515841668 0.0
1.1207208936434945 0.0014376034024605 0.0
1.0396666028712038 -0.0307393990627850 0.0
1.0453446219492639 -0.0291710782775599 0.0
1.0639745229664794 0.0031824407139300 0.0
1.0801034694157827 0.0015810551340688 0.0
1.0529734587670669 -0.0259081167206167 0.0
1.0484046023713041 -0.0252115317498313 0.0
1.0979607359388361 -0.0060062692493148 0.0
1.1060065220617052 -0.0040601867813728 0.0
1.0970062666981675 0.0042173844627162 0.0
1.1030888098438589 0.0028988368685335 0.0
1.0479871428107073 -0.0107504196917558 0.0
1.0302199586650704 -0.0091988626617610 0.0
1.0191668314400257 0.0098292116797366 0.0
1.0358540766653732 0.0111389500948573 0.0
0.9985275260909411 0.0133138615624684 0.0
1.0003024057159335 -0.0102337371254756 0.0
0.9454792430173028 0.0070958026649043 0.0
0.9382745683652779 0.0081729246672045 0.0
1.1155131354782557 -0.0043120549609441 0.0
1.1127756092849559 0.0012082606385111 0.0
1.1286776368116826 0.0006132307911969 0.0
1.1270438791829926 0.0013636033911638 0.0
0.9853011695534455 0.0044158645443757 0.0
0.9664016753770257 0.0005026227182526 0.0
0.9627689134125303 -0.0000062226988311 0.0
0.9871530415710111 -0.0035069582670770 0.0
1.1166843992551294 0.0011911905606736 0.0
1.1165079197480423 -0.0025768919919972 0.0
1.1155315211131247 -0.0020167467167414 0.0
1.1080261795604844 -0.0018095037987833 0.0
0.9568624947341984 -0.0055031921951954 0.0
0.9581428283150958 0.0004684249761921 0.0
0.9605210491367840 -0.0010376743021884 0.0
0.9542081878985870 0.0051050144738315 0.0
1.0270712433194291 0.0048237110487502 0.0
1.0158119972922057 -0.0024025508983965 0.0
1.0124976650760282 0.0062423174332076 0.0
1.0327736112921224 -0.0015931012925978 0.0
1.1686451372651865 0.0074471456466435 0.0
1.1531405508518540 -0.0057477115196588 0.0
1.1558207336104709 0.0042574338713403 0.0
1.1646858921963223 -0.0084494233664281 0.0
1.1296469300925767 -0.0003928317917772 0.0
1.1294877170643352 0.0005225556917282 0.0
1.0761318266309876 0.0088508313758837 0.0
1.0739230702724438 -0.0116520084218612 0.0
1.1552804889627617 -0.0020723087120763 0.0
1.1549285908245535 0.0021106591039730 0.0
0.9742844316636590 -0.0045905298443256 0.0
0.9439612370141802 0.0035295827112573 0.0
0.9590218409486229 -0.0046404670533919 0.0
0.9603652087959027 0.0036165147751577 0.0
0.8948771568243986 -0.0779674681880129 0.0
0.8870120902212829 -0.0773076623653252 0.0
1.1119507122058154 0.0448905619719826 0.0
1.1198579267416320 0.0491693625917229 0.0
1.1432007512359790 -0.0023901455717592 0.0
1.1291741880968709 0.0003679625294601 0.0
1.1282012571709095 -0.0001800899551296 0.0
1.1457006338241278 0.0024294658237189 0.0
0.9874261767997869 -0.0220375555416883 0.0
0.9791352776692963 0.0121665643220153 0.0
1.0391707877069731 -0.0710420121145116 0.0
1.0336095844671442 -0.0543110093032479 0.0
1.0425141915442175 0.0609256675980757 0.0
1.0469972787382829 0.0775625620730258 0.0
1.0297770047928321 -0.0052823526455347 0.0
1.0180521378579905 0.0139720467188103 0.0
1.0135913070320988 -0.0044630918196032 0.0
1.0344583290901614 0.0147130001626160 0.0
1.1255770482136085 0.0005360917769656 0.0
1.1238244241133077 0.0003609680261039 0.0
0.9503863921284115 -0.0127953057844688 0.0
0.9594217901782820 -0.0009252354982313 0.0
0.9486430876879336 0.0017567245544502 0.0
0.9605218585278144 0.0130046712392420 0.0
0.9393328152546780 -0.0116964625202619 0.0
0.9411098684304080 0.0089382517859706 0.0
1.0819541825647860 -0.0377975544335475 0.0
1.0768521676422043 -0.0425780407397758 0.0
1.1969821186816887 0.0546545698770197 0.0
1.1844116272108576 0.0581192369546636 0.0
0.8883875914324936 -0.0042071040361875 0.0
0.8739716856151759 -0.0059576954040136 0.0
0.8908819021818929 0.0050247607727615 0.0
0.8776156640089569 0.0063973083309391 0.0
1.1563949760788641 0.0046453294894395 0.0
1.1653523330558060 0.0054261916683264 0.0
1.0894381079929178 -0.0229018367539107 0.0
1.0933067826116198 -0.0153025005904507 0.0
1.0848766230155080 0.0159101823011594 0.0
1.0828769159316511 0.0231406209643005 0.0
1.0330401254844028 0.0062261054103415 0.0
1.0040175612072297 -0.0193758902809979 0.0
1.0168683860371108 0.0068429931302571 0.0
1.0207031793605350 -0.0187014900008363 0.0
1.1408296803354114 -0.0003444433196989 0.0
1.1253475723303887 -0.0006967093195693 0.0
1.1316571783193001 -0.0002220475139221 0.0
1.1340156426338794 -0.0011844493110614 0.0
1.1335740931269482 -0.0028662301264836 0.0
1.1296130538561187 -0.0036973406009393 0.0
0.9415286487318983 -0.0123160505314471 0.0
0.9458112685867395 0.0114037855588897 0.0
1.1277105703976786 0.0032580451213970 0.0
1.1341753526604625 0.0012297885836906 0.0
1.1674200940666999 -0.0152387051781820 0.0
1.1711920142567513 0.0058301598508921 0.0
0.9610243951889432 0.0430052922188313 0.0
0.9688381340478316 0.0414632064303788 0.0
1.1751627942977876 -0.0193761436543889 0.0
1.1627573243987743 0.0088513639400127 0.0
1.1624760217104257 -0.0147817358457458 0.0
1.1734607895718436 0.0128796538248597 0.0
1.1441330207661231 -0.0038131595127602 0.0
1.1435680793432705 0.0014725159319215 0.0
0.8266283344623785 -0.0079509420308849 0.0
0.8307037149153809 0.0071300277115590 0.0
1.1878988673999218 0.0146876394114152 0.0
1.1878708235842284 -0.0172266025285418 0.0
1.0102894749213220 0.1181768611721013 0.0
1.0171002544388694 -0.1154424025485544 0.0
1.0909100343114990 0.0000592514918019 0.0
1.0931950920349400 0.0015553319938731 0.0
1.0843666360625419 0.0061422091537785 0.0
1.0816672343066343 -0.0088742461218524 0.0
1.1412475679011476 0.0050998386040623 0.0
1.1297961782123684 0.0058843290112225 0.0
1.0988108822951133 -0.0401851003118158 0.0
1.1078320344157802 -0.0438292126276934 0.0
1.1035975531740567 -0.0088331817835493 0.0
1.1014397676493017 0.0068418443670165 0.0
1.1711350201492248 0.0163681395430055 0.0
1.1715267924124135 -0.0204229149387214 0.0
1.1090157073959444 -0.0073646850784528 0.0
1.1079997474871990 0.0055974537790741 0.0
0.8104579958923041 0.0739563156202127 0.0
0.7966225255178712 0.0726529896123242 0.0
0.7980498147805950 -0.0678734425136445 0.0
0.8112230485565017 -0.0688273209213336 0.0
1.1634152824665855 -0.0583776312881526 0.0
1.1647056301793219 -0.0543148614137005 0.0
0.7937830157403577 0.0060271924286406 0.0
0.7945848835963751 -0.0078270846650706 0.0
1.2453269568322209 0.1118370018489883 0.0
1.2450257468459232 0.1176295209243468 0.0
0.8158702110645013 0.0809635027563509 0.0
0.8099608438913871 0.0813618348928503 0.0
1.1899188137881853 0.0278031350809572 0.0
1.1907729695059119 -0.0297461886191364 0.0
1.1797543150017329 -0.0081639695823694 0.0
1.1807166994171570 0.0088373717214240 0.0
1.1083345617375795 -0.0630846881619004 0.0
1.1105533938062950 -0.0730005113046200 0.0
1.0958395749134759 0.0822025958945802 0.0
1.0925564365604699 0.0715362393490971 0.0
1.1233465840890915 -0.0063208611775503 0.0
1.1297490740075766 -0.0060382498632965 0.0
0.8239529553848746 0.0602394712193990 0.0
0.7948520737156127 -0.0579684026854929 0.0
0.7988982339533696 0.0556773317568027 0.0
0.8198992767423710 -0.0625996513704773 0.0
0.8269909292039199 0.0091051754931003 0.0
0.8222243520204635 0.0104309936132816 0.0
0.8606338496779772 -0.0035148702737455 0.0
0.8555944685696566 -0.0067950224049218 0.0
1.0509024325521623 -0.0616320339881843 0.0
1.0521255243263936 -0.0469248257172191 0.0
1.0577372302356096 0.0530684071435764 0.0
1.0571108521603785 0.0677695917739058 0.0
1.0799708734807403 -0.0653987914780595 0.0
1.1210493555741805 0.0966350361432239 0.0
1.1118751221009138 0.0005778671051840 0.0
1.1048491334381692 -0.0000884680146790 0.0
0.8403980051995676 0.0050509649069950 0.0
0.7985375600853528 0.0026071557891258 0.0
0.8421512587376255 -0.0046301565122996 0.0
0.8000592902272142 -0.0024847237749042 0.0
1.1199929942373992 0.0032619078288793 0.0
1.1199256159069848 -0.0038050125038798 0.0
1.1688652198399510 -0.0063774856774473 0.0
1.1812846668998773 -0.0059811333121197 0.0
1.0036325484584969 0.1200844562732132 0.0
1.0003106747716328 -0.1230270594535763 0.0
1.1477054233534536 0.0490139488722676 0.0
1.1313587471024231 0.0498657506700827 0.0
1.1541474689346380 -0.0554561510809349 0.0
1.1379383996705008 -0.0561191896599676 0.0
0.8806944954319715 -0.0728914892985724 0.0
0.8521040426566108 0.0268419729704359 0.0
0.7205598744579214 0.0088255354974031 0.0
0.7079300077287601 0.0079680524692505 0.0
0.7086073696057912 -0.0245308132575754 0.0
0.7221126992164788 -0.0261397212440924 0.0
0.7574865253800465 -0.0063540781638376 0.0
0.7564890760855897 0.0050767469889609 0.0
1.1020281950564739 0.0763374713940841 0.0
1.1143034726187939 -0.0788292017713801 0.0
0.8227295318262851 -0.0597087352537167 0.0
0.8088155937353190 0.0625414505773230 0.0
0.8083940756159593 -0.0584176327410697 0.0
0.8229573850769828 0.0637238725416923 0.0
1.1969642004171539 -0.0305728402738552 0.0
1.1987452323704251 0.0274411692008519 0.0
0.7896502304681533 0.0207224611485624 0.0
0.7838309067828751 -0.0138636848373750 0.0
0.9946323492102724 0.0381208465419612 0.0
1.0032818913076107 0.0475600011521128 0.0
0.9985796811455914 -0.0426490744559719 0.0
0.9901417299379665 -0.0336739618837280 0.0
0.9388010403768282 -0.0046424283875625 0.0
0.9391031931445702 0.0150902847043522 0.0
0.8465340030056417 0.0580775334529181 0.0
0.8044366355319872 -0.0547209761266607 0.0
0.8309767521238325 0.0566345936780124 0.0
0.8188214907732473 -0.0556909869028423 0.0
1.1174272795103977 -0.0005794395228768 0.0
1.1165521225795121 -0.0001494035482045 0.0
0.7832962326469820 -0.0612590773716071 0.0
0.8067287714899980 0.0466015997261650 0.0
0.7874990515265029 0.0562228223322179 0.0
0.8017405308043456 -0.0509127164462054 0.0
1.2137547156397117 -0.0352891583693562 0.0
1.1979679351703691 -0.0238797170012878 0.0
1.1779032762079773 -0.0191378979944407 0.0
1.1923157379805374 -0.0122353483597623 0.0
1.1328982224117221 -0.0083920073475944 0.0
1.1201358116674700 -0.0086433853012808 0.0
1.1218011958798471 -0.0041655280675048 0.0
1.1313696574918197 -0.0021267321923206 0.0
1.2110344475975099 -0.0120166409942341 0.0
1.2247889841541695 -0.0078062998300683 0.0
0.8312326620825095 -0.0017008681262359 0.0
0.8112751102748544 -0.0020747343763587 0.0
0.8270321504395991 -0.0035032916733649 0.0
0.8158992099988218 -0.0023751934237990 0.0