# vtk DataFile Version 3.0
LucasCarvalhoTCC Results
ASCII

DATASET POLYDATA
FIELD FieldData 1
TIME 1 1 double
3.8000000000000003

POINTS 494 float
0.0 0.0 0.0
8.0 0.0 0.0
8.0 1.0 0.0
0.0 1.0 0.0
4.0 0.0 0.0
4.0 1.0 0.0
4.0 0.35 0.0
4.0 0.65 0.0
0.2010296266416496 1.0 0.0
0.3986915135488555 1.0 0.0
0.5930420631591132 1.0 0.0
0.7841367769318693 1.0 0.0
0.9720301907499852 1.0 0.0
1.156775924166146 1.0 0.0
1.33842670621592 1.0 0.0
1.517034389070868 1.0 0.0
1.69264994674003 1.0 0.0
1.865323550794866 1.0 0.0
2.035104414722059 1.0 0.0
2.202040983487818 1.0 0.0
2.366180993436638 1.0 0.0
2.527571282866703 1.0 0.0
2.686257831390245 1.0 0.0
2.842286022819771 1.0 0.0
2.995700353514032 1.0 0.0
3.146544637914273 1.0 0.0
3.294861880721452 1.0 0.0
3.440694398353104 1.0 0.0
3.58408394609007 1.0 0.0
3.725071294102791 1.0 0.0
3.863696788294668 1.0 0.0
4.136303211705004 1.0 0.0
4.274928705896546 1.0 0.0
4.415916053908917 1.0 0.0
4.55930560164552 1.0 0.0
4.7051381192768 1.0 0.0
4.853455362083593 1.0 0.0
5.004299646483437 1.0 0.0
5.157713977177285 1.0 0.0
5.313742168606385 1.0 0.0
5.472428717129489 1.0 0.0
5.6338190065591 1.0 0.0
5.797959016507455 1.0 0.0
5.96489558527273 1.0 0.0
6.134676449200184 1.0 0.0
6.307350053255487 1.0 0.0
6.482965610925135 1.0 0.0
6.661573293780584 1.0 0.0
6.843224075830887 1.0 0.0
7.027969809247587 1.0 0.0
7.215863223066262 1.0 0.0
7.4069579368396 1.0 0.0
7.601308486450315 1.0 0.0
7.798970373357896 1.0 0.0
8.0 0.7999999999999996 0.0
8.0 0.6000000000013874 0.0
8.0 0.4000000000016649 0.0
8.0 0.2000000000008324 0.0
7.798970373357898 0.0 0.0
7.601308486450317 0.0 0.0
7.406957936839601 0.0 0.0
7.215863223066265 0.0 0.0
7.02796980924759 0.0 0.0
6.843224075830888 0.0 0.0
6.661573293780592 0.0 0.0
6.482965610925139 0.0 0.0
6.307350053255492 0.0 0.0
6.134676449200188 0.0 0.0
5.964895585272735 0.0 0.0
5.797959016507459 0.0 0.0
5.633819006559103 0.0 0.0
5.472428717129493 0.0 0.0
5.313742168606389 0.0 0.0
5.157713977177288 0.0 0.0
5.004299646483441 0.0 0.0
4.853455362083597 0.0 0.0
4.705138119276803 0.0 0.0
4.559305601645523 0.0 0.0
4.415916053908919 0.0 0.0
4.274928705896549 0.0 0.0
4.136303211705007 0.0 0.0
3.863696788294383 0.0 0.0
3.725071294102209 0.0 0.0
3.584083946089184 0.0 0.0
3.440694398352564 0.0 0.0
3.29486188072223 0.0 0.0
3.146544637916415 0.0 0.0
2.995700353517581 0.0 0.0
2.842286022824779 0.0 0.0
2.68625783139676 0.0 0.0
2.527571282874774 0.0 0.0
2.366180993446318 0.0 0.0
2.202040983499156 0.0 0.0
2.035104414735112 0.0 0.0
1.865323550807426 0.0 0.0
1.692649946751479 0.0 0.0
1.517034389081164 0.0 0.0
1.338426706225015 0.0 0.0
1.156775924174005 0.0 0.0
0.9720301907565596 0.0 0.0
0.784136776937109 0.0 0.0
0.5930420631629705 0.0 0.0
0.3986915135514271 0.0 0.0
0.2010296266429896 0.0 0.0
0.0 0.199999999999558 0.0
0.0 0.3999999999989746 0.0
0.0 0.5999999999989464 0.0
0.0 0.7999999999994731 0.0
4.065082561150232 0.3648546699507293 0.0
4.117274722996153 0.4064765305061043 0.0
4.146239186965635 0.4666218605127571 0.0
4.146239186588658 0.5333781411388893 0.0
4.117274722147235 0.5935234705584039 0.0
4.065082560620447 0.6351453303044018 0.0
3.934917439190226 0.6351453302132268 0.0
3.882725277520537 0.5935234701418048 0.0
3.853760813071839 0.5333781396514286 0.0
3.853760813263242 0.4666218595099774 0.0
3.882725277782338 0.4064765295299076 0.0
3.934917439246251 0.3648546697597932 0.0
3.348071016817302 0.5037366844559412 0.0
4.65817771841185 0.4813089492125461 0.0
5.148432135339639 0.5000000000000013 0.0
2.851567863014233 0.5000000000000465 0.0
4.406326506211093 0.3072680842959042 0.0
3.575604791543614 0.6706702532911111 0.0
4.424395205595821 0.6706702556565258 0.0
3.593673497058965 0.3072680820819204 0.0
5.648652107845511 0.5000000000000006 0.0
2.351347890458042 0.4999999999998563 0.0
1.851146954963573 0.4999999999998219 0.0
6.148853043290459 0.4999999999999989 0.0
6.65089532386231 0.5241211434250735 0.0
1.349104674975677 0.4758788558671475 0.0
7.150713697794147 0.4858064203922342 0.0
0.8492863006035025 0.4858064203396458 0.0
4.216343713145164 0.2287135668575249 0.0
3.7836562881134 0.7712864338025908 0.0
4.346988371127422 0.5000000019594898 0.0
4.213775907987267 0.7756803165215952 0.0
3.653011628408684 0.4999999990051173 0.0
3.786224091202296 0.224319683220954 0.0
7.572712389010231 0.5763628491757339 0.0
0.4272876103144935 0.5763628498169726 0.0
4.881741322202974 0.3185523670790996 0.0
3.118258676783759 0.6814476337404539 0.0
3.126854924363118 0.2792890251323842 0.0
4.873145074373641 0.7207109754187309 0.0
5.398381996912613 0.291094588046412 0.0
5.396092528392672 0.7230702977293901 0.0
2.603907471650227 0.7230702981371074 0.0
2.601618001742297 0.2910945873520305 0.0
4.065645388412852 0.1903894420877926 0.0
3.934354612281609 0.8096105573695707 0.0
4.268393145079946 0.6292513280674802 0.0
3.731606853978594 0.3707486723017213 0.0
4.265062587797852 0.3723525870906427 0.0
3.734937412407246 0.6276474138958879 0.0
5.89991820844496 0.720584760457478 0.0
5.899661142431216 0.2940789491313893 0.0
2.100338856207466 0.7059210507243335 0.0
2.100081790085733 0.2794152396968363 0.0
4.648216390708278 0.2460745758417431 0.0
3.350865525112209 0.7519279174007294 0.0
3.351783614314077 0.2460745727859678 0.0
4.649134469923633 0.7519279206208029 0.0
6.386000070083336 0.2800687217561524 0.0
6.399946740387701 0.7091877900019353 0.0
1.613999929083956 0.7199312783619409 0.0
1.600053258667474 0.2908122092889953 0.0
1.099018086220021 0.3101534564461602 0.0
1.099018086220183 0.6898465435530818 0.0
6.900981912171285 0.3101534566801202 0.0
6.900981912171287 0.689846543319878 0.0
3.934891793257755 0.2336799984692873 0.0
4.065108206439434 0.7663200008196746 0.0
5.133077706310633 0.254681732561614 0.0
5.131620328745691 0.7509194919064351 0.0
2.866922291796803 0.7453182673725732 0.0
2.868379670398546 0.2490805081265555 0.0
0.5973224633027379 0.3123440263675117 0.0
7.402677535116692 0.3123440263206204 0.0
7.70928508668797 0.2984218335093966 0.0
0.2907149122204558 0.2984218350042115 0.0
2.359042531710287 0.2526358364218651 0.0
2.362552667743482 0.7498876177132479 0.0
5.640957467742433 0.2526358368965552 0.0
5.637447332034727 0.7498876177447886 0.0
7.330771635020911 0.7204300868765696 0.0
0.6692283641678903 0.7204300870263377 0.0
6.141991504218947 0.7500064293114952 0.0
6.143214654121697 0.2541610692540839 0.0
1.858008494097047 0.2499935706645152 0.0
1.856785344746094 0.7458389307817799 0.0
1.360037479834015 0.7503851535261052 0.0
1.363297687800482 0.2332108063209677 0.0
6.636702311691573 0.7667891933666813 0.0
6.639962519949044 0.2496148464378299 0.0
7.14328150074831 0.2292696686424185 0.0
0.8567184978980538 0.2292696684503961 0.0
4.845173759433459 0.5000000012080886 0.0
3.15482623877425 0.4999999993865263 0.0
3.514470413944982 0.5755907957035395 0.0
4.485529584365944 0.5755907996488695 0.0
4.350214515329574 0.8947484376274254 0.0
3.64978548377064 0.1052515623441257 0.0
4.356280753270322 0.1397878825788729 0.0
3.643719248073251 0.8602121180766233 0.0
4.157657982820168 0.3023031440803671 0.0
3.842342017851872 0.6976968563131654 0.0
4.149794964153143 0.6947625877680722 0.0
3.850205035403508 0.3052374120341299 0.0
4.252863769441745 0.5000000013253333 0.0
3.747136230269581 0.4999999993774377 0.0
2.66150837620265 0.4835883053501762 0.0
5.338491622258749 0.4835883052760253 0.0
7.732076714471282 0.7613785341653052 0.0
0.267923285219987 0.7613785345749642 0.0
3.482582425594127 0.3988584940714734 0.0
4.517417574829351 0.3988584973195787 0.0
7.120961454429095 0.7969630876933931 0.0
0.8790385446795201 0.7969630878928393 0.0
4.524178509919695 0.1937066442020419 0.0
3.472973035782958 0.803602443762734 0.0
4.527026959328886 0.8036024455277256 0.0
3.475821495314308 0.1937066425220846 0.0
5.834485749168302 0.4775259269822466 0.0
2.16551424934095 0.5224740729963462 0.0
4.803832126993392 0.8343163881584211 0.0
3.196167871756218 0.1656836120733276 0.0
3.196167870279283 0.834316388182051 0.0
4.803832130306974 0.1656836112805605 0.0
1.646902821176459 0.5088844228822333 0.0
6.35309717778631 0.4911155766888507 0.0
4.128745436683365 0.8608937921704661 0.0
3.871254562700506 0.1391062074145501 0.0
7.783519314041498 0.4824599318584197 0.0
0.2164806854160975 0.4824599323519634 0.0
3.981228286637499 0.1341601386487245 0.0
4.018771713398118 0.8658398609794804 0.0
4.757705393330306 0.6277793253200102 0.0
3.245404476813698 0.3720431195654205 0.0
3.262406961538709 0.609092082228193 0.0
4.738552632749474 0.3854106153034425 0.0
4.980576921401999 0.1828043249223437 0.0
3.019423077460087 0.8171956749482756 0.0
4.975386875116307 0.8288560892267683 0.0
3.024613123995747 0.1711439108946455 0.0
7.537862127958827 0.7914398748884439 0.0
0.46213787149577 0.7914398749623154 0.0
4.150965283491015 0.1232311208167031 0.0
3.849034718225983 0.8767688792466098 0.0
0.6330166515036239 0.5212993800799176 0.0
7.366983347335347 0.5212993798709434 0.0
5.001451172914062 0.4591396125040952 0.0
2.998548825585332 0.5408603877155073 0.0
5.250532135494552 0.1623854812497458 0.0
5.24999687257574 0.8404382486850067 0.0
2.749794930508214 0.8396380739052673 0.0
2.749676059914328 0.161585306286623 0.0
1.150631951549359 0.5017906253149568 0.0
6.85747267660715 0.5137706215776152 0.0
2.938770240933895 0.3859183074771494 0.0
5.061229757952985 0.6140816927005173 0.0
5.521883200863776 0.8371838481144578 0.0
5.520780843451154 0.1567733764659754 0.0
2.479219155991939 0.1567733759623464 0.0
2.478116798894765 0.8371838481096507 0.0
2.208224060227917 0.1725929992863016 0.0
2.214655190115911 0.821187355218689 0.0
5.791775938918927 0.8274070011383262 0.0
5.785558009721889 0.1789659155514431 0.0
5.243140500145841 0.3651007420679131 0.0
5.247758683472709 0.6318228659349833 0.0
2.748336099792684 0.6332079670712092 0.0
2.766145970608876 0.3583112578457802 0.0
2.500794992947401 0.4517155340697119 0.0
5.499205006433885 0.4517155344186723 0.0
3.472119223331378 0.69283875816516 0.0
4.527880773131323 0.6928387614752662 0.0
2.445947440949104 0.6396216022327238 0.0
5.554052558509333 0.6396216019605415 0.0
[...]
POINT_DATA 494

VECTORS Velocity float
0.0000000000000000 0.0000000000000000 0.0
0.8198984328910048 -0.1380590372132559 0.0
0.0000000000000000 0.0000000000000000 0.0
0.0000000000000000 0.0000000000000000 0.0
0.0000000000000000 0.0000000000000000 0.0
0.0000000000000000 0.0000000000000000 0.0
0.0000000000000000 0.0000000000000000 0.0
0.0000000000000000 0.0000000000000000 0.0
0.0000000000000000 0.0000000000000000 0.0
0.0000000000000000 0.0000000000000000 0.0
0.0000000000000000 0.0000000000000000 0.0
0.0000000000000000 0.0000000000000000 0.0
0.0000000000000000 0.0000000000000000 0.0
0.0000000000000000 0.0000000000000000 0.0
0.0000000000000000 0.0000000000000000 0.0
0.0000000000000000 0.0000000000000000 0.0
0.0000000000000000 0.0000000000000000 0.0
0.0000000000000000 0.0000000000000000 0.0
0.0000000000000000 0.0000000000000000 0.0
0.0000000000000000 0.0000000000000000 0.0
0.0000000000000000 0.0000000000000000 0.0
0.0000000000000000 0.0000000000000000 0.0
0.0000000000000000 0.0000000000000000 0.0
0.0000000000000000 0.0000000000000000 0.0
0.0000000000000000 0.0000000000000000 0.0
0.0000000000000000 0.0000000000000000 0.0
0.0000000000000000 0.0000000000000000 0.0
0.0000000000000000 0.0000000000000000 0.0
0.0000000000000000 0.0000000000000000 0.0
0.0000000000000000 0.0000000000000000 0.0
0.0000000000000000 0.0000000000000000 0.0
0.0000000000000000 0.0000000000000000 0.0
0.0000000000000000 0.0000000000000000 0.0
0.0000000000000000 0.0000000000000000 0.0
0.0000000000000000 0.0000000000000000 0.0
0.0000000000000000 0.0000000000000000 0.0
0.0000000000000000 0.0000000000000000 0.0
0.0000000000000000 0.0000000000000000 0.0
0.0000000000000000 0.0000000000000000 0.0
0.0000000000000000 0.0000000000000000 0.0
0.0000000000000000 0.0000000000000000 0.0
0.0000000000000000 0.0000000000000000 0.0
0.0000000000000000 0.0000000000000000 0.0
0.0000000000000000 0.0000000000000000 0.0
0.0000000000000000 0.0000000000000000 0.0
0.0000000000000000 0.0000000000000000 0.0
0.0000000000000000 0.0000000000000000 0.0
0.0000000000000000 0.0000000000000000 0.0
0.0000000000000000 0.0000000000000000 0.0
0.0000000000000000 0.0000000000000000 0.0
0.0000000000000000 0.0000000000000000 0.0
0.0000000000000000 0.0000000000000000 0.0
0.0000000000000000 0.0000000000000000 0.0
0.0000000000000000 0.0000000000000000 0.0
1.0770891965206273 0.5444073058061882 0.0
0.9956023111056960 0.1379127520013343 0.0
0.9602287659438534 -0.0877685230153387 0.0
1.0633876077783022 -0.4539059684445789 0.0
0.0000000000000000 0.0000000000000000 0.0
0.0000000000000000 0.0000000000000000 0.0
0.0000000000000000 0.0000000000000000 0.0
0.0000000000000000 0.0000000000000000 0.0
0.0000000000000000 0.0000000000000000 0.0
0.0000000000000000 0.0000000000000000 0.0
0.0000000000000000 0.0000000000000000 0.0
0.0000000000000000 0.0000000000000000 0.0
0.0000000000000000 0.0000000000000000 0.0
0.0000000000000000 0.0000000000000000 0.0
0.0000000000000000 0.0000000000000000 0.0
0.0000000000000000 0.0000000000000000 0.0
0.0000000000000000 0.0000000000000000 0.0
0.0000000000000000 0.0000000000000000 0.0
0.0000000000000000 0.0000000000000000 0.0
0.0000000000000000 0.0000000000000000 0.0
0.0000000000000000 0.0000000000000000 0.0
0.0000000000000000 0.0000000000000000 0.0
0.0000000000000000 0.0000000000000000 0.0
0.0000000000000000 0.0000000000000000 0.0
0.0000000000000000 0.0000000000000000 0.0
0.0000000000000000 0.0000000000000000 0.0
0.0000000000000000 0.0000000000000000 0.0
0.0000000000000000 0.0000000000000000 0.0
0.0000000000000000 0.0000000000000000 0.0
0.0000000000000000 0.0000000000000000 0.0
0.0000000000000000 0.0000000000000000 0.0
0.0000000000000000 0.0000000000000000 0.0
0.0000000000000000 0.0000000000000000 0.0
0.0000000000000000 0.0000000000000000 0.0
0.0000000000000000 0.0000000000000000 0.0
0.0000000000000000 0.0000000000000000 0.0
0.0000000000000000 0.0000000000000000 0.0
0.0000000000000000 0.0000000000000000 0.0
0.0000000000000000 0.0000000000000000 0.0
0.0000000000000000 0.0000000000000000 0.0
0.0000000000000000 0.0000000000000000 0.0
0.0000000000000000 0.0000000000000000 0.0
0.0000000000000000 0.0000000000000000 0.0
0.0000000000000000 0.0000000000000000 0.0
0.0000000000000000 0.0000000000000000 0.0
0.0000000000000000 0.0000000000000000 0.0
0.0000000000000000 0.0000000000000000 0.0
0.0000000000000000 0.0000000000000000 0.0
0.0000000000000000 0.0000000000000000 0.0
0.0000000000000000 0.0000000000000000 0.0
1.0000000000000000 0.0000000000000000 0.0
1.0000000000000000 0.0000000000000000 0.0
1.0000000000000000 0.0000000000000000 0.0
1.0000000000000000 0.0000000000000000 0.0
0.0000000000000000 0.0000000000000000 0.0
0.0000000000000000 0.0000000000000000 0.0
0.0000000000000000 0.0000000000000000 0.0
0.0000000000000000 0.0000000000000000 0.0
0.0000000000000000 0.0000000000000000 0.0
0.0000000000000000 0.0000000000000000 0.0
0.0000000000000000 0.0000000000000000 0.0
0.0000000000000000 0.0000000000000000 0.0
0.0000000000000000 0.0000000000000000 0.0
0.0000000000000000 0.0000000000000000 0.0
0.0000000000000000 0.0000000000000000 0.0
0.0000000000000000 0.0000000000000000 0.0
1.6035254224756488 -0.0142262260785048 0.0
1.6057850592420220 0.0127809635570719 0.0
1.6377153834804867 -0.0119097998736173 0.0
1.6347963256479854 -0.0170077400229769 0.0
1.3421064856477809 0.0843554902282603 0.0
1.3673809854330627 0.0641651782061530 0.0
1.4115391679054232 -0.1092318236047539 0.0
1.3876578299821489 -0.1331055171448773 0.0
1.6118903449662529 0.0003489282140112 0.0
1.6113739189876650 -0.0087751373551749 0.0
1.5577768502289908 0.0058338147103749 0.0
1.5569334389186031 -0.0008058507559685 0.0
1.5731898146599077 -0.0318209305728452 0.0
1.5732095622962741 0.0168058045674378 0.0
1.6563600310647102 0.0099062964135260 0.0
1.6529693781692889 -0.0172234653051709 0.0
1.3189929028816441 0.3216626840720282 0.0
1.3185060861471929 0.3148920200649160 0.0
1.3697963018517729 0.0236203056022328 0.0
1.3519245594348281 -0.2353788984841368 0.0
1.3696862783399084 0.0179563603088026 0.0
1.3514689063299414 -0.2402811238270859 0.0
1.5492244902922450 0.0141316794211024 0.0
1.5330083663718816 -0.0339168309096858 0.0
1.3407227782060198 0.0039336948737192 0.0
1.3433825094398453 0.0041142240668508 0.0
1.2628677399214625 0.0028054707590221 0.0
1.2559650710596701 0.0003171134863101 0.0
1.3045998220839632 -0.0066818927958876 0.0
1.2115379274002231 -0.0148046965438889 0.0
1.1814615420545531 0.0084350699874580 0.0
1.3272251413750016 0.0034682824004106 0.0
1.4606703680854907 0.1368993682181545 0.0
1.4610511773704451 0.1347366778291881 0.0
1.4383858774210869 -0.2771906128386962 0.0
1.4443208162339556 -0.2824640645337205 0.0
1.4428114585587675 0.3608001460756866 0.0
1.4381312073057455 0.3576970539859906 0.0
1.1803504506889759 -0.0288725481984514 0.0
1.3026231448684238 -0.0079390370403484 0.0
1.2939903334333638 -0.0176894495324233 0.0
1.1848789651900415 -0.0316420810887492 0.0
1.0764426348657710 -0.0672093593849367 0.0
1.0829986449253208 -0.0572303045575731 0.0
1.0934397305547110 0.0426772983927650 0.0
1.1040463182076703 0.0284256125942147 0.0
1.2558874730158605 0.0044063798862118 0.0
1.2399370567575283 -0.0205588424925897 0.0
1.2447288506915741 0.0196454444097078 0.0
1.2501286543884711 -0.0012642131672529 0.0
1.4406666059163837 -0.0314734619980331 0.0
1.3204536734613266 0.0526534644860933 0.0
1.4458067070431380 0.0341825304135514 0.0
1.3120903564856008 -0.0463980638612288 0.0
1.5781309681896851 -0.2299777169936993 0.0
1.5778264626038374 -0.2292402762199166 0.0
1.1555877802749588 -0.0546471176086011 0.0
1.1800523562829925 0.0588222067198083 0.0
1.1430626590732422 -0.0574708059800382 0.0
1.1884743746729045 0.0476195221998476 0.0
1.4286786470469306 0.0325617582356364 0.0
1.4397325020417346 -0.0300594117705645 0.0
1.2951324189441062 -0.1607723104936108 0.0
1.2810303291503726 0.1936175875850981 0.0
1.1906021821239150 0.0496408194285339 0.0
1.1383471692376710 -0.0052710046020019 0.0
1.1867486016250637 -0.0375933589522020 0.0
1.1538373825570427 0.0306924045588200 0.0
1.2894404158544357 0.0085762109178437 0.0
1.2968393110565932 -0.0147316591269999 0.0
1.1556899201987023 0.0378465019330465 0.0
1.2188499782099254 -0.0663894335813351 0.0
1.1577239199754841 0.0411026284688293 0.0
1.2165303847977922 -0.0648454410686617 0.0
1.1690157800726295 0.0696332739727650 0.0
1.1453442142783534 -0.0396561467490628 0.0
1.0986835196621669 -0.0578318853003159 0.0
1.2059974511944196 0.0510167954642196 0.0
1.1028059521593130 -0.0234452252076937 0.0
1.0962605297736665 0.0190214443881160 0.0
1.6146132255128360 0.0083378103373281 0.0
1.6171492800662592 -0.0002844770211702 0.0
1.4903058399172273 0.0314566968663678 0.0
1.5112819313009636 -0.0679864259751364 0.0
0.4721115545520918 -0.0143169161984170 0.0
0.4537228370303704 -0.0163337378957995 0.0
0.5700610803527177 0.1071595631078616 0.0
0.5896462014624999 0.1062672307996488 0.0
1.4647765874649474 0.4483092775069211 0.0
1.4600663022763005 0.4449291570754587 0.0
1.5448879361595060 -0.3610555068920589 0.0
1.5470131525287629 -0.3627511040302482 0.0
0.9915354889470848 0.0347042003844872 0.0
0.9922865608890419 0.0449736425386950 0.0
1.6128606527609999 0.0322615798001502 0.0
1.6049140042567391 -0.0437670934416462 0.0
1.1586153318483523 0.1959184816174434 0.0
1.1963195685896790 -0.2744865358393231 0.0
1.5337442402929258 -0.0544519627796742 0.0
1.5069102934426755 0.0100982218824304 0.0
0.7367554352631944 -0.0068450903219584 0.0
0.7585958710793607 0.0053997312355925 0.0
0.8925063708539488 -0.0168307866832913 0.0
0.9093049264737061 -0.0199502545898421 0.0
0.9246907326817208 0.0048739193071649 0.0
0.9101567580363178 0.0045412980391901 0.0
1.5786004666793771 -0.0264652138885248 0.0
1.5786160516944081 -0.0566973265786055 0.0
0.6640707622060805 -0.0834960402449256 0.0
0.6618036932424156 -0.0842504232993392 0.0
0.7116009884607341 0.0638382034561792 0.0
0.7097117032204908 0.0626238460120592 0.0
1.4963695592313822 0.0494969803592871 0.0
1.4969660512765570 0.0321338264099469 0.0
0.8990862598577650 -0.1256747762720005 0.0
0.8996388523628038 -0.1289832423923462 0.0
1.3577988944737405 0.0009284696453192 0.0
1.2764953786686888 0.0145178441269925 0.0
1.0038859934627262 -0.0947861975046347 0.0
1.0042342857473343 -0.0946019070221026 0.0
1.5178667201106415 -0.0269404585581384 0.0
1.5223240858524600 -0.0293162895854008 0.0
1.4877191078904890 0.0370877950056707 0.0
1.4906042920752873 0.0442544994384174 0.0
0.7495795833314480 -0.0084782115755133 0.0
0.7534763578198032 -0.0068044900929565 0.0
0.7040027514478731 0.0218818246225050 0.0
0.6932446142473166 0.0198398108485819 0.0
0.8169576148970875 0.0369400361538547 0.0
0.8405944578564847 -0.0645605789728224 0.0
0.7454767538427866 0.0910219805846890 0.0
0.7481462647599239 0.0880485824085426 0.0
1.5783227005056810 -0.0105878109544939 0.0
1.5883341857186364 0.0054583249057693 0.0
1.5940809961874118 -0.0079157855228399 0.0
1.5951204970201138 -0.0057778504316541 0.0
0.7018481406673478 -0.0033929319468176 0.0
0.7264270271319286 0.0265299336079899 0.0
0.7060545488960033 -0.0128830208461521 0.0
0.7052015811149499 0.0193056330765310 0.0
1.6270236385415531 -0.0025033382282921 0.0
1.6301308516577535 -0.0437776175329342 0.0
1.5216381436834538 -0.0091379054331230 0.0
1.5231250524721052 -0.0134287519025704 0.0
0.7147133154206494 -0.0106850992035610 0.0
0.6381130585191892 0.0177502862890829 0.0
0.6510850128000981 -0.0200394530538621 0.0
0.6959079420649299 0.0086929103142269 0.0
0.8046736802795945 0.0297441539525531 0.0
0.7785530048790087 -0.0224031821193840 0.0
0.8088104019658051 0.0208726998009292 0.0
0.7931083564226256 -0.0275227519330955 0.0
1.4136498056274427 -0.0104632990837388 0.0
1.4385481396829429 0.0015976198653182 0.0
1.4163636044386947 -0.0010280660819325 0.0
1.4391848506970688 0.0087281650373684 0.0
1.5794861155771660 0.0009927198055821 0.0
1.5675016930838288 -0.0108808495492120 0.0
1.3115348110465552 0.0068148951089989 0.0
1.3572635200570518 -0.0272516419634519 0.0
1.4083837264598305 0.0022489582382112 0.0
1.4166042066667757 -0.0140152688691570 0.0
0.7205594381501118 -0.0170383336586975 0.0
0.6703277513717091 0.0187846447407099 0.0
0.7225445993166496 -0.0182938140482034 0.0
0.6715677247186747 0.0204822462333841 0.0
0.5561856436687702 -0.1177099146077214 0.0
0.5606005593255220 -0.1124185787627256 0.0
1.2859342827486084 0.1193378945771579 0.0
1.2851470015080151 0.1169783314786698 0.0
1.4216743238684402 -0.0167222979290264 0.0
1.3839544029783410 -0.0411937733868726 0.0
1.3873639797439776 0.0221721420574876 0.0
1.4233249390509279 -0.0031986282398287 0.0
0.7985016754910732 -0.0654148953366102 0.0
0.7977041411619490 0.0751520848355271 0.0
1.1246978300550965 -0.1587435984396904 0.0
1.1256527282585864 -0.1557170658246861 0.0
1.1270788182048186 0.2255304822936594 0.0
1.1223090674477596 0.2263331508861093 0.0
0.8466822191937472 -0.0429144898491686 0.0
0.8063274131808026 0.0487981452255234 0.0
0.8425554910423110 -0.0381265199251884 0.0
0.8118532190918917 0.0556911770402879 0.0
1.5547237461807200 -0.0100633553366115 0.0
1.5552576518630281 -0.0201687798805081 0.0
0.6852167738813728 -0.0211964469474223 0.0
0.7026091834119524 0.0035346442875450 0.0
0.6460116674212397 0.0250290866063861 0.0
0.7320841818481972 0.0423653572784818 0.0
0.6601575629342100 0.0020123222381152 0.0
0.6653029709319670 -0.0025358042960824 0.0
1.4082915623289693 -0.2125325449111503 0.0
1.4058074381651844 -0.2031716638778607 0.0
1.2669696209911556 0.2644111927320305 0.0
1.2681492868587823 0.2473111870830774 0.0
0.4748445052024421 -0.0511704536190581 0.0
0.4836417382446127 -0.0504749915909040 0.0
0.4806387380115344 0.0525836286948276 0.0
0.4899128410379588 0.0509116918263104 0.0
1.4015026854588561 -0.0056932306069058 0.0
1.4040160717667247 -0.0032144129804189 0.0
1.4311986272897181 -0.1611458714591595 0.0
1.4474985360890160 -0.1600759785095763 0.0
1.4487151906469931 0.1791643237671290 0.0
1.4286870098283453 0.1749611340273153 0.0
0.8531484170030612 0.0395176889522297 0.0
0.7431152712406545 -0.1088347016275906 0.0
0.8382000051892111 0.0514916723432247 0.0
0.7625390396724622 -0.0920918513462555 0.0
1.3978690440153494 -0.0449056089882311 0.0
1.3692281709213174 0.0515471304859551 0.0
1.3931284996380155 -0.0367525036908545 0.0
1.3722667057494209 0.0607654992334717 0.0
1.5104354114729854 0.0020554584793623 0.0
1.5090257415436836 -0.0312334662625698 0.0
0.6468341175797945 0.0022899089274151 0.0
0.6492165090201919 0.0042808628540850 0.0
1.3903240549997438 0.0805057467994363 0.0
1.4035631098693480 0.0528402441513067 0.0
1.5196484328833513 -0.0423167835965599 0.0
1.4950545698921838 0.0461800130236704 0.0
0.6980030757444151 0.0930231859527641 0.0
0.6849598943288444 0.1008920446812021 0.0
1.4632808583330270 -0.0289340783434030 0.0
1.4140978707086409 0.0354208450281434 0.0
1.4131471268338951 -0.0492275689356515 0.0
1.4632090089357357 0.0044531971561034 0.0
1.6340105648470817 0.0203425599067174 0.0
1.6473297055543148 -0.0275357413891591 0.0
0.5027271387935673 0.0000255834182871 0.0
0.5006929438374264 0.0019768786089701 0.0
1.5293228632981157 -0.0328024676816274 0.0
1.5260010744734780 0.0322328311232622 0.0
0.9373880736516674 0.2269675136454711 0.0
0.9059589265844534 -0.2232135798255762 0.0
1.5189693404175815 -0.0161104106104689 0.0
1.5151189957854918 -0.0062975669815979 0.0
1.3082296563033216 0.0039190252531696 0.0
1.3534365899725704 -0.0284145987103297 0.0
1.3232811368210375 -0.0188872962018716 0.0
1.3282713296991808 -0.0168634724332613 0.0
1.2052884956893692 -0.1208895787025733 0.0
1.2053467006171776 -0.1208232053186004 0.0
1.4983931909097057 -0.0152361716902409 0.0
1.4479276001060271 -0.0053535970320506 0.0
1.4527086115698200 -0.0305738933318690 0.0
1.4407720913636919 0.0319135590209490 0.0
1.5058157979939373 -0.0215134769106437 0.0
1.4535406883027453 0.0010718414922000 0.0
0.4285179783060014 0.0470015104668544 0.0
0.4312124879129846 0.0439513783179176 0.0
0.4242545264357819 -0.0309184305927614 0.0
0.4170975005513196 -0.0339931949186528 0.0
1.4352727029317875 -0.3327578317880139 0.0
1.4364877076175666 -0.3361261173798911 0.0
0.3968150725483867 0.0067351566734001 0.0
0.4060124647336406 -0.0109644633157894 0.0
1.5113491992292296 0.3292988028922463 0.0
1.5127308670434012 0.3237600961065592 0.0
0.5929443144504015 0.0992136094258140 0.0
0.5937485358719600 0.0980618174686654 0.0
1.5182379340283441 0.0239301821675366 0.0
1.5220463066362560 -0.0231627241466915 0.0
1.3284576206585699 -0.0151551881231524 0.0
1.3429600691810928 0.0130677627825421 0.0
1.4611555062395600 -0.3822097681580943 0.0
1.4566802769763412 -0.3773521586138454 0.0
1.3989887700106964 0.4888075459074069 0.0
1.4087125317017317 0.4864505954486688 0.0
1.5917730705896165 0.0110647677479785 0.0
1.5888046967069616 0.0129810588437199 0.0
0.4854907651151201 0.0541202394296482 0.0
0.4637698402750990 -0.0607427882974152 0.0
0.4781168749507534 0.0583379279783486 0.0
0.4741917590967319 -0.0568964486607266 0.0
0.3824688494612872 0.0283655567598357 0.0
0.4042257982109204 0.0284887380916468 0.0
0.4165195759376946 -0.0153784865275968 0.0
0.4393061158818292 -0.0166329812547534 0.0
1.2529501977489979 -0.2063467552674688 0.0
1.2707734088209344 -0.2084726326839679 0.0
1.2793841286781511 0.2830850338559457 0.0
1.2625774066891255 0.2812647165325007 0.0
1.2073993868386623 -0.2716852343324502 0.0
1.1809266283832551 0.2659641121819966 0.0
1.4519268069192384 0.0020152865735369 0.0
1.4589856662625407 0.0165005413512936 0.0
0.5093876149451320 -0.0093650614622018 0.0
0.4835243973240707 -0.0005580408736033 0.0
0.5205679760111548 0.0144827230703191 0.0
0.4979461423344326 0.0044918934868353 0.0
1.4872848947035804 -0.0227748781042095 0.0
1.4747560965725013 0.0048736398249553 0.0
1.3352401774652192 -0.0266215645655024 0.0
1.3355236550767893 -0.0235523459788122 0.0
0.8719034808011611 0.2643836035057203 0.0
0.9351796202439409 -0.2433838388163286 0.0
1.0389340495479393 0.0731432124288145 0.0
1.0464411321432623 0.0791884906171784 0.0
1.0557589711750912 -0.0959475590684606 0.0
1.0576023096603373 -0.0986893605981881 0.0
0.6354393310925003 -0.1341577149849681 0.0
0.6495923245922600 0.1423293150564775 0.0
0.2847466721113737 -0.0239779246893827 0.0
0.2880997062081670 -0.0233785764348775 0.0
0.2943832576152029 -0.0108392480030120 0.0
0.2928798542892099 -0.0108487881669296 0.0
0.3558276751505716 -0.0115991673328491 0.0
0.3554365570046290 0.0117656849992815 0.0
1.2240414258105208 0.3286116915990867 0.0
1.1734796902381284 -0.2645091564641961 0.0
0.5059640293932739 -0.0602641742654247 0.0
0.4941620765473139 0.0720519239272265 0.0
0.5056158765925343 -0.0594915468795794 0.0
0.4949839433857240 0.0738986826236089 0.0
1.4849183781330033 0.0479249588178356 0.0
1.4960873966714456 -0.0609375709713922 0.0
0.4519937342543516 0.0758263842724118 0.0
0.5224902217723340 -0.1242544496234511 0.0
0.9605747981846661 0.0638440464969517 0.0
0.9569427420810229 0.0621296818741360 0.0
0.9853348984852452 -0.0608121400661198 0.0
0.9860966166109378 -0.0610376617288061 0.0
0.8777963367820604 0.0305933181843175 0.0
0.8783366301872987 0.0396225828960613 0.0
0.5326955147694373 0.0441290315473741 0.0
0.5069739794461573 -0.0573457974952804 0.0
0.5299762265396489 0.0425939985434116 0.0
0.5054943451093573 -0.0576560736103561 0.0
1.5447615063255280 -0.0062142236358220 0.0
1.5404516758179605 -0.0034047394977849 0.0
0.4240094649253311 -0.0720898013217798 0.0
0.4745158648576162 0.0498595536433226 0.0
0.4586427515747160 0.0611550186316902 0.0
0.4444877933692516 -0.0607845986691983 0.0
1.0074434781027486 0.0410760240283583 0.0
1.0442791757363792 0.0426710227692629 0.0
1.0754968007617507 -0.0562583384599649 0.0
1.0491413524934710 -0.0603307437551147 0.0
1.3117972828505371 0.0210634732241323 0.0
1.3099252462001545 0.0279381246129027 0.0
1.3543297801765715 -0.0674905559813855 0.0
1.3691410393198702 -0.0392787239321957 0.0
1.0550570991223207 -0.1252278662273301 0.0
1.0494597033477275 -0.1323195083962257 0.0
0.5283612481579009 -0.0013756922445837 0.0
0.5302142369435037 0.0080915227681074 0.0
0.5363431607447030 0.0041346956913706 0.0
0.5198190850237834 -0.0061774642900059 0.0