# vtk DataFile Version 3.0
LucasCarvalhoTCC Results
ASCII

DATASET POLYDATA
FIELD FieldData 1
TIME 1 1 double
0.5

POINTS 494 float
0.0 0.0 0.0
8.0 0.0 0.0
8.0 1.0 0.0
0.0 1.0 0.0
4.0 0.0 0.0
4.0 1.0 0.0
4.0 0.35 0.0
4.0 0.65 0.0
0.2010296266416496 1.0 0.0
0.3986915135488555 1.0 0.0
0.5930420631591132 1.0 0.0
0.7841367769318693 1.0 0.0
0.9720301907499852 1.0 0.0
1.156775924166146 1.0 0.0
1.33842670621592 1.0 0.0
1.517034389070868 1.0 0.0
1.69264994674003 1.0 0.0
1.865323550794866 1.0 0.0
2.035104414722059 1.0 0.0
2.202040983487818 1.0 0.0
2.366180993436638 1.0 0.0
2.527571282866703 1.0 0.0
2.686257831390245 1.0 0.0
2.842286022819771 1.0 0.0
2.995700353514032 1.0 0.0
3.146544637914273 1.0 0.0
3.294861880721452 1.0 0.0
3.440694398353104 1.0 0.0
3.58408394609007 1.0 0.0
3.725071294102791 1.0 0.0
3.863696788294668 1.0 0.0
4.136303211705004 1.0 0.0
4.274928705896546 1.0 0.0
4.415916053908917 1.0 0.0
4.55930560164552 1.0 0.0
4.7051381192768 1.0 0.0
4.853455362083593 1.0 0.0
5.004299646483437 1.0 0.0
5.157713977177285 1.0 0.0
5.313742168606385 1.0 0.0
5.472428717129489 1.0 0.0
5.6338190065591 1.0 0.0
5.797959016507455 1.0 0.0
5.96489558527273 1.0 0.0
6.134676449200184 1.0 0.0
6.307350053255487 1.0 0.0
6.482965610925135 1.0 0.0
6.661573293780584 1.0 0.0
6.843224075830887 1.0 0.0
7.027969809247587 1.0 0.0
7.215863223066262 1.0 0.0
7.4069579368396 1.0 0.0
7.601308486450315 1.0 0.0
7.798970373357896 1.0 0.0
8.0 0.7999999999999996 0.0
8.0 0.6000000000013874 0.0
8.0 0.4000000000016649 0.0
8.0 0.2000000000008324 0.0
7.798970373357898 0.0 0.0
7.601308486450317 0.0 0.0
7.406957936839601 0.0 0.0
7.215863223066265 0.0 0.0
7.02796980924759 0.0 0.0
6.843224075830888 0.0 0.0
6.661573293780592 0.0 0.0
6.482965610925139 0.0 0.0
6.307350053255492 0.0 0.0
6.134676449200188 0.0 0.0
5.964895585272735 0.0 0.0
5.797959016507459 0.0 0.0
5.633819006559103 0.0 0.0
5.472428717129493 0.0 0.0
5.313742168606389 0.0 0.0
5.157713977177288 0.0 0.0
5.004299646483441 0.0 0.0
4.853455362083597 0.0 0.0
4.705138119276803 0.0 0.0
4.559305601645523 0.0 0.0
4.415916053908919 0.0 0.0
4.274928705896549 0.0 0.0
4.136303211705007 0.0 0.0
3.863696788294383 0.0 0.0
3.725071294102209 0.0 0.0
3.584083946089184 0.0 0.0
3.440694398352564 0.0 0.0
3.29486188072223 0.0 0.0
3.146544637916415 0.0 0.0
2.995700353517581 0.0 0.0
2.842286022824779 0.0 0.0
2.68625783139676 0.0 0.0
2.527571282874774 0.0 0.0
2.366180993446318 0.0 0.0
2.202040983499156 0.0 0.0
2.035104414735112 0.0 0.0
1.865323550807426 0.0 0.0
1.692649946751479 0.0 0.0
1.517034389081164 0.0 0.0
1.338426706225015 0.0 0.0
1.156775924174005 0.0 0.0
0.9720301907565596 0.0 0.0
0.784136776937109 0.0 0.0
0.5930420631629705 0.0 0.0
0.3986915135514271 0.0 0.0
0.2010296266429896 0.0 0.0
0.0 0.199999999999558 0.0
0.0 0.3999999999989746 0.0
0.0 0.5999999999989464 0.0
0.0 0.7999999999994731 0.0
4.065082561150232 0.3648546699507293 0.0
4.117274722996153 0.4064765305061043 0.0
4.146239186965635 0.4666218605127571 0.0
4.146239186588658 0.5333781411388893 0.0
4.117274722147235 0.5935234705584039 0.0
4.065082560620447 0.6351453303044018 0.0
3.934917439190226 0.6351453302132268 0.0
3.882725277520537 0.5935234701418048 0.0
3.853760813071839 0.5333781396514286 0.0
3.853760813263242 0.4666218595099774 0.0
3.882725277782338 0.4064765295299076 0.0
3.934917439246251 0.3648546697597932 0.0
3.348071016817302 0.5037366844559412 0.0
4.65817771841185 0.4813089492125461 0.0
5.148432135339639 0.5000000000000013 0.0
2.851567863014233 0.5000000000000465 0.0
4.406326506211093 0.3072680842959042 0.0
3.575604791543614 0.6706702532911111 0.0
4.424395205595821 0.6706702556565258 0.0
3.593673497058965 0.3072680820819204 0.0
5.648652107845511 0.5000000000000006 0.0
2.351347890458042 0.4999999999998563 0.0
1.851146954963573 0.4999999999998219 0.0
6.148853043290459 0.4999999999999989 0.0
6.65089532386231 0.5241211434250735 0.0
1.349104674975677 0.4758788558671475 0.0
7.150713697794147 0.4858064203922342 0.0
0.8492863006035025 0.4858064203396458 0.0
4.216343713145164 0.2287135668575249 0.0
3.7836562881134 0.7712864338025908 0.0
4.346988371127422 0.5000000019594898 0.0
4.213775907987267 0.7756803165215952 0.0
3.653011628408684 0.4999999990051173 0.0
3.786224091202296 0.224319683220954 0.0
7.572712389010231 0.5763628491757339 0.0
0.4272876103144935 0.5763628498169726 0.0
4.881741322202974 0.3185523670790996 0.0
3.118258676783759 0.6814476337404539 0.0
3.126854924363118 0.2792890251323842 0.0
4.873145074373641 0.7207109754187309 0.0
5.398381996912613 0.291094588046412 0.0
5.396092528392672 0.7230702977293901 0.0
2.603907471650227 0.7230702981371074 0.0
2.601618001742297 0.2910945873520305 0.0
4.065645388412852 0.1903894420877926 0.0
3.934354612281609 0.8096105573695707 0.0
4.268393145079946 0.6292513280674802 0.0
3.731606853978594 0.3707486723017213 0.0
4.265062587797852 0.3723525870906427 0.0
3.734937412407246 0.6276474138958879 0.0
5.89991820844496 0.720584760457478 0.0
5.899661142431216 0.2940789491313893 0.0
2.100338856207466 0.7059210507243335 0.0
2.100081790085733 0.2794152396968363 0.0
4.648216390708278 0.2460745758417431 0.0
3.350865525112209 0.7519279174007294 0.0
3.351783614314077 0.2460745727859678 0.0
4.649134469923633 0.7519279206208029 0.0
6.386000070083336 0.2800687217561524 0.0
6.399946740387701 0.7091877900019353 0.0
1.613999929083956 0.7199312783619409 0.0
1.600053258667474 0.2908122092889953 0.0
1.099018086220021 0.3101534564461602 0.0
1.099018086220183 0.6898465435530818 0.0
6.900981912171285 0.3101534566801202 0.0
6.900981912171287 0.689846543319878 0.0
3.934891793257755 0.2336799984692873 0.0
4.065108206439434 0.7663200008196746 0.0
5.133077706310633 0.254681732561614 0.0
5.131620328745691 0.7509194919064351 0.0
2.866922291796803 0.7453182673725732 0.0
2.868379670398546 0.2490805081265555 0.0
0.5973224633027379 0.3123440263675117 0.0
7.402677535116692 0.3123440263206204 0.0
7.70928508668797 0.2984218335093966 0.0
0.2907149122204558 0.2984218350042115 0.0
2.359042531710287 0.2526358364218651 0.0
2.362552667743482 0.7498876177132479 0.0
5.640957467742433 0.2526358368965552 0.0
5.637447332034727 0.7498876177447886 0.0
7.330771635020911 0.7204300868765696 0.0
0.6692283641678903 0.7204300870263377 0.0
6.141991504218947 0.7500064293114952 0.0
6.143214654121697 0.2541610692540839 0.0
1.858008494097047 0.2499935706645152 0.0
1.856785344746094 0.7458389307817799 0.0
1.360037479834015 0.7503851535261052 0.0
1.363297687800482 0.2332108063209677 0.0
6.636702311691573 0.7667891933666813 0.0
6.639962519949044 0.2496148464378299 0.0
7.14328150074831 0.2292696686424185 0.0
0.8567184978980538 0.2292696684503961 0.0
4.845173759433459 0.5000000012080886 0.0
3.15482623877425 0.4999999993865263 0.0
3.514470413944982 0.5755907957035395 0.0
4.485529584365944 0.5755907996488695 0.0
4.350214515329574 0.8947484376274254 0.0
3.64978548377064 0.1052515623441257 0.0
4.356280753270322 0.1397878825788729 0.0
3.643719248073251 0.8602121180766233 0.0
4.157657982820168 0.3023031440803671 0.0
3.842342017851872 0.6976968563131654 0.0
4.149794964153143 0.6947625877680722 0.0
3.850205035403508 0.3052374120341299 0.0
4.252863769441745 0.5000000013253333 0.0
3.747136230269581 0.4999999993774377 0.0
2.66150837620265 0.4835883053501762 0.0
5.338491622258749 0.4835883052760253 0.0
7.732076714471282 0.7613785341653052 0.0
0.267923285219987 0.7613785345749642 0.0
3.482582425594127 0.3988584940714734 0.0
4.517417574829351 0.3988584973195787 0.0
7.120961454429095 0.7969630876933931 0.0
0.8790385446795201 0.7969630878928393 0.0
4.524178509919695 0.1937066442020419 0.0
3.472973035782958 0.803602443762734 0.0
4.527026959328886 0.8036024455277256 0.0
3.475821495314308 0.1937066425220846 0.0
5.834485749168302 0.4775259269822466 0.0
2.16551424934095 0.5224740729963462 0.0
4.803832126993392 0.8343163881584211 0.0
3.196167871756218 0.1656836120733276 0.0
3.196167870279283 0.834316388182051 0.0
4.803832130306974 0.1656836112805605 0.0
1.646902821176459 0.5088844228822333 0.0
6.35309717778631 0.4911155766888507 0.0
4.128745436683365 0.8608937921704661 0.0
3.871254562700506 0.1391062074145501 0.0
7.783519314041498 0.4824599318584197 0.0
0.2164806854160975 0.4824599323519634 0.0
3.981228286637499 0.1341601386487245 0.0
4.018771713398118 0.8658398609794804 0.0
4.757705393330306 0.6277793253200102 0.0
3.245404476813698 0.3720431195654205 0.0
3.262406961538709 0.609092082228193 0.0
4.738552632749474 0.3854106153034425 0.0
4.980576921401999 0.1828043249223437 0.0
3.019423077460087 0.8171956749482756 0.0
4.975386875116307 0.8288560892267683 0.0
3.024613123995747 0.1711439108946455 0.0
7.537862127958827 0.7914398748884439 0.0
0.46213787149577 0.7914398749623154 0.0
4.150965283491015 0.1232311208167031 0.0
3.849034718225983 0.8767688792466098 0.0
0.6330166515036239 0.5212993800799176 0.0
7.366983347335347 0.5212993798709434 0.0
5.001451172914062 0.4591396125040952 0.0
2.998548825585332 0.5408603877155073 0.0
5.250532135494552 0.1623854812497458 0.0
5.24999687257574 0.8404382486850067 0.0
2.749794930508214 0.8396380739052673 0.0
2.749676059914328 0.161585306286623 0.0
1.150631951549359 0.5017906253149568 0.0
6.85747267660715 0.5137706215776152 0.0
2.938770240933895 0.3859183074771494 0.0
5.061229757952985 0.6140816927005173 0.0
5.521883200863776 0.8371838481144578 0.0
5.520780843451154 0.1567733764659754 0.0
2.479219155991939 0.1567733759623464 0.0
2.478116798894765 0.8371838481096507 0.0
2.208224060227917 0.1725929992863016 0.0
2.214655190115911 0.821187355218689 0.0
5.791775938918927 0.8274070011383262 0.0
5.785558009721889 0.1789659155514431 0.0
5.243140500145841 0.3651007420679131 0.0
5.247758683472709 0.6318228659349833 0.0
2.748336099792684 0.6332079670712092 0.0
2.766145970608876 0.3583112578457802 0.0
2.500794992947401 0.4517155340697119 0.0
5.499205006433885 0.4517155344186723 0.0
3.472119223331378 0.69283875816516 0.0
4.527880773131323 0.6928387614752662 0.0
2.445947440949104 0.6396216022327238 0.0
5.554052558509333 0.6396216019605415 0.0
1.976669571201813 0.1631348676957265 0.0
[...]
POINT_DATA 494

VECTORS Velocity float
0.0000000000000000 0.0000000000000000 0.0
0.8295046273636004 -0.1221468580309561 0.0
0.0000000000000000 0.0000000000000000 0.0
0.0000000000000000 0.0000000000000000 0.0
0.0000000000000000 0.0000000000000000 0.0
0.0000000000000000 0.0000000000000000 0.0
0.0000000000000000 0.0000000000000000 0.0
0.0000000000000000 0.0000000000000000 0.0
0.0000000000000000 0.0000000000000000 0.0
0.0000000000000000 0.0000000000000000 0.0
0.0000000000000000 0.0000000000000000 0.0
0.0000000000000000 0.0000000000000000 0.0
0.0000000000000000 0.0000000000000000 0.0
0.0000000000000000 0.0000000000000000 0.0
0.0000000000000000 0.0000000000000000 0.0
0.0000000000000000 0.0000000000000000 0.0
0.0000000000000000 0.0000000000000000 0.0
0.0000000000000000 0.0000000000000000 0.0
0.0000000000000000 0.0000000000000000 0.0
0.0000000000000000 0.0000000000000000 0.0
0.0000000000000000 0.0000000000000000 0.0
0.0000000000000000 0.0000000000000000 0.0
0.0000000000000000 0.0000000000000000 0.0
0.0000000000000000 0.0000000000000000 0.0
0.0000000000000000 0.0000000000000000 0.0
0.0000000000000000 0.0000000000000000 0.0
0.0000000000000000 0.0000000000000000 0.0
0.0000000000000000 0.0000000000000000 0.0
0.0000000000000000 0.0000000000000000 0.0
0.0000000000000000 0.0000000000000000 0.0
0.0000000000000000 0.0000000000000000 0.0
0.0000000000000000 0.0000000000000000 0.0
0.0000000000000000 0.0000000000000000 0.0
0.0000000000000000 0.0000000000000000 0.0
0.0000000000000000 0.0000000000000000 0.0
0.0000000000000000 0.0000000000000000 0.0
0.0000000000000000 0.0000000000000000 0.0
0.0000000000000000 0.0000000000000000 0.0
0.0000000000000000 0.0000000000000000 0.0
0.0000000000000000 0.0000000000000000 0.0
0.0000000000000000 0.0000000000000000 0.0
0.0000000000000000 0.0000000000000000 0.0
0.0000000000000000 0.0000000000000000 0.0
0.0000000000000000 0.0000000000000000 0.0
0.0000000000000000 0.0000000000000000 0.0
0.0000000000000000 0.0000000000000000 0.0
0.0000000000000000 0.0000000000000000 0.0
0.0000000000000000 0.0000000000000000 0.0
0.0000000000000000 0.0000000000000000 0.0
0.0000000000000000 0.0000000000000000 0.0
0.0000000000000000 0.0000000000000000 0.0
0.0000000000000000 0.0000000000000000 0.0
0.0000000000000000 0.0000000000000000 0.0
0.0000000000000000 0.0000000000000000 0.0
1.0888951689747355 0.4740874953933505 0.0
0.9894496270193193 0.0963410324664176 0.0
0.9720872803780929 -0.0648077813896640 0.0
1.0640589467346486 -0.3963457655674154 0.0
0.0000000000000000 0.0000000000000000 0.0
0.0000000000000000 0.0000000000000000 0.0
0.0000000000000000 0.0000000000000000 0.0
0.0000000000000000 0.0000000000000000 0.0
0.0000000000000000 0.0000000000000000 0.0
0.0000000000000000 0.0000000000000000 0.0
0.0000000000000000 0.0000000000000000 0.0
0.0000000000000000 0.0000000000000000 0.0
0.0000000000000000 0.0000000000000000 0.0
0.0000000000000000 0.0000000000000000 0.0
0.0000000000000000 0.0000000000000000 0.0
0.0000000000000000 0.0000000000000000 0.0
0.0000000000000000 0.0000000000000000 0.0
0.0000000000000000 0.0000000000000000 0.0
0.0000000000000000 0.0000000000000000 0.0
0.0000000000000000 0.0000000000000000 0.0
0.0000000000000000 0.0000000000000000 0.0
0.0000000000000000 0.0000000000000000 0.0
0.0000000000000000 0.0000000000000000 0.0
0.0000000000000000 0.0000000000000000 0.0
0.0000000000000000 0.0000000000000000 0.0
0.0000000000000000 0.0000000000000000 0.0
0.0000000000000000 0.0000000000000000 0.0
0.0000000000000000 0.0000000000000000 0.0
0.0000000000000000 0.0000000000000000 0.0
0.0000000000000000 0.0000000000000000 0.0
0.0000000000000000 0.0000000000000000 0.0
0.0000000000000000 0.0000000000000000 0.0
0.0000000000000000 0.0000000000000000 0.0
0.0000000000000000 0.0000000000000000 0.0
0.0000000000000000 0.0000000000000000 0.0
0.0000000000000000 0.0000000000000000 0.0
0.0000000000000000 0.0000000000000000 0.0
0.0000000000000000 0.0000000000000000 0.0
0.0000000000000000 0.0000000000000000 0.0
0.0000000000000000 0.0000000000000000 0.0
0.0000000000000000 0.0000000000000000 0.0
0.0000000000000000 0.0000000000000000 0.0
0.0000000000000000 0.0000000000000000 0.0
0.0000000000000000 0.0000000000000000 0.0
0.0000000000000000 0.0000000000000000 0.0
0.0000000000000000 0.0000000000000000 0.0
0.0000000000000000 0.0000000000000000 0.0
0.0000000000000000 0.0000000000000000 0.0
0.0000000000000000 0.0000000000000000 0.0
0.0000000000000000 0.0000000000000000 0.0
1.0000000000000000 0.0000000000000000 0.0
1.0000000000000000 0.0000000000000000 0.0
1.0000000000000000 0.0000000000000000 0.0
1.0000000000000000 0.0000000000000000 0.0
0.0000000000000000 0.0000000000000000 0.0
0.0000000000000000 0.0000000000000000 0.0
0.0000000000000000 0.0000000000000000 0.0
0.0000000000000000 0.0000000000000000 0.0
0.0000000000000000 0.0000000000000000 0.0
0.0000000000000000 0.0000000000000000 0.0
0.0000000000000000 0.0000000000000000 0.0
0.0000000000000000 0.0000000000000000 0.0
0.0000000000000000 0.0000000000000000 0.0
0.0000000000000000 0.0000000000000000 0.0
0.0000000000000000 0.0000000000000000 0.0
0.0000000000000000 0.0000000000000000 0.0
1.2799169386806470 0.0025384611546216 0.0
1.2809381160074920 0.0047427189038742 0.0
1.3767062593210817 -0.0034055301103241 0.0
1.3769727019892326 -0.0042228089545342 0.0
1.3043687872321088 0.0054631239418935 0.0
1.2934455424600981 0.0189524624502777 0.0
1.2788341162242756 -0.0610247330645888 0.0
1.2850207619498533 -0.0580162591069862 0.0
1.3782148737752145 0.0077623032010506 0.0
1.3765425600677625 -0.0097620948244346 0.0
1.3676794010965401 0.0084805890800587 0.0
1.3667677222588559 0.0062562349302681 0.0
1.3918463581311558 -0.0110328183149313 0.0
1.3940633676627980 0.0006897623102152 0.0
1.4517963365648243 0.0073240397498523 0.0
1.4498244717919342 -0.0139583022345215 0.0
1.3684199387305618 0.1772775222615575 0.0
1.3636524357001696 0.1809608786919888 0.0
1.1593599960435199 0.0074490319759628 0.0
1.3953217916316123 -0.1280086489323545 0.0
1.1594862939858659 0.0096381790214447 0.0
1.4004862458672211 -0.1244192797955596 0.0
1.4481026304230908 0.0160765693585451 0.0
1.4423968026279217 -0.0282763614293379 0.0
1.3167173692993985 0.0192111112054116 0.0
1.3072577491780608 0.0184603495474406 0.0
1.3132462521429427 -0.0091555374363372 0.0
1.3011707711353953 -0.0072122545875960 0.0
1.3287353671097113 0.0025110888218442 0.0
1.2898309343003949 -0.0090026330511462 0.0
1.2807196502430980 0.0065005111890208 0.0
1.3350604354061293 -0.0042232136457875 0.0
1.4582408890124188 0.1135534995446140 0.0
1.4576583218614834 0.1136796076587788 0.0
1.2497102670367783 -0.1709106348602270 0.0
1.2494001997553603 -0.1650561163040874 0.0
1.3094544496312084 0.2038043030475314 0.0
1.3074579619627416 0.2138810378457328 0.0
1.2575292884231211 -0.0330249753743651 0.0
1.3056802433107686 0.0119488371502666 0.0
1.2951332550186683 0.0128354077592858 0.0
1.2684582444573427 -0.0311198152190029 0.0
1.2014422139458354 -0.0202185926290903 0.0
1.1891349855976292 -0.0172743100329697 0.0
1.2122499059770895 0.0035216517563972 0.0
1.2000288061800686 -0.0012938633889858 0.0
1.2614826639046941 0.0022568815331926 0.0
1.2356700850256508 -0.0090039146903773 0.0
1.2491647989101791 0.0053460093786385 0.0
1.2470076632771756 -0.0048989859403487 0.0
1.4096093678913688 -0.0027311290038820 0.0
1.3434976381164161 0.0497569942130413 0.0
1.4073722810496354 0.0027184067554173 0.0
1.3448657993367588 -0.0488043239337945 0.0
1.5487399217156328 -0.1584309111969575 0.0
1.5481221207660159 -0.1600784931164040 0.0
1.2626816498552660 -0.0025552912741222 0.0
1.2661637668535499 -0.0012040169565887 0.0
1.2514848528896101 -0.0090018570565164 0.0
1.2751858908411078 -0.0096118439397980 0.0
1.4080199977159480 -0.0080134157519079 0.0
1.4128529701238393 0.0060840883564479 0.0
1.2933179956755283 -0.1389304171534190 0.0
1.2914425002518009 0.1554130342754141 0.0
1.2758084622853911 0.0437508263683746 0.0
1.2485172171289294 -0.0172027645342442 0.0
1.2700008218792374 -0.0326063670148779 0.0
1.2564730726579783 0.0336189338216524 0.0
1.3000045680898820 -0.0028385461656418 0.0
1.3010761797534172 -0.0010705749186363 0.0
1.2459497741803460 0.0406256628516132 0.0
1.2769822362472483 -0.0472452832966795 0.0
1.2583033203435139 0.0422160392477300 0.0
1.2649051788892312 -0.0461649502182524 0.0
1.2473421942998784 0.0603322393824301 0.0
1.2343261985641041 -0.0541602327198282 0.0
1.2182787138443651 -0.0644674867097526 0.0
1.2629333041907684 0.0520878553262261 0.0
1.2182260101062521 -0.0124158487309183 0.0
1.2187000236685537 0.0093264609897807 0.0
1.3261977423894664 0.0104854653789420 0.0
1.3249948947114527 0.0082893292120504 0.0
1.2488446428653646 0.0280494149737738 0.0
1.2437387541060949 -0.0284246450123869 0.0
0.6424533421322584 -0.0017691439965939 0.0
0.6331659131079899 -0.0008364716409809 0.0
0.7351164028789173 0.0834604048607670 0.0
0.7427873089545819 0.0837154335680960 0.0
1.3867425312067656 0.3285636347162325 0.0
1.3868880683956764 0.3323338786359115 0.0
1.4301339452668396 -0.2543960806997517 0.0
1.4288797900747128 -0.2503237442659700 0.0
0.9481225815200243 0.0014838517828197 0.0
0.9484653792473398 0.0165341323876664 0.0
1.4014597711512460 0.0076745441656488 0.0
1.3999385603373073 -0.0119167124807139 0.0
1.2127340017213804 0.1738438562121822 0.0
1.2265566655988318 -0.2337714019240409 0.0
1.2534638319294225 -0.0203144707222712 0.0
1.2575007114647576 0.0153019782190698 0.0
0.8355363587245930 -0.0048112981295572 0.0
0.8459572358222862 0.0031897018653222 0.0
1.1338102818529598 -0.0105413534856508 0.0
1.1233630467823794 -0.0174595974720786 0.0
1.1333485097321923 -0.0057112574293672 0.0
1.1466546113591503 -0.0096128168524717 0.0
1.3792866738265150 -0.0079477902972026 0.0
1.3770924686347843 -0.0107995221111998 0.0
0.8331831634219711 -0.0790169518661299 0.0
0.8419484741190598 -0.0787201428810414 0.0
0.8721054975432327 0.0697651131918800 0.0
0.8815003696871984 0.0687935113649153 0.0
1.3532205294946564 0.0127833361111901 0.0
1.3537674043623646 0.0103864151424045 0.0
0.9645934010486099 -0.0704238182399877 0.0
0.9674548051381416 -0.0714221283836080 0.0
1.2636911280295571 -0.0027634205534640 0.0
1.2191883647548059 0.0128960504053315 0.0
1.0233207410861787 -0.0633868490019148 0.0
1.0228245178277289 -0.0635235433643160 0.0
1.3245053415194552 -0.0299091149347856 0.0
1.3344084412101458 -0.0323192636795348 0.0
1.3053372281153652 0.0418799723194653 0.0
1.3126222677971755 0.0453321316468887 0.0
0.9137910348567755 0.0027079695685417 0.0
0.9064592556154595 0.0023274628843678 0.0
0.8676195043194554 0.0068916925458780 0.0
0.8696754178585293 0.0056226916884593 0.0
0.8834671894183056 0.0235316185259982 0.0
0.8954119956015837 -0.0387734744933576 0.0
0.8074776387358391 0.0465308829062743 0.0
0.8061433671468241 0.0464069763793998 0.0
1.4228060719782682 -0.0179049143880504 0.0
1.4270712428453511 0.0120057118439879 0.0
1.3431278077286197 -0.0092244143468276 0.0
1.3411657196598776 -0.0119213284499241 0.0
0.8207014227943449 0.0035104485766885 0.0
0.8252620942920765 0.0077042371298375 0.0
0.8178907094415432 -0.0027466236721844 0.0
0.8195827745654337 0.0029432208280757 0.0
1.4388606630092160 0.0078990465254672 0.0
1.4413856177263848 -0.0347316683089572 0.0
1.3339749145489088 -0.0347622176039217 0.0
1.3258528539517695 -0.0314669307264700 0.0
0.8115116714550951 -0.0091741256088304 0.0
0.7550417385662458 0.0132775412857454 0.0
0.7609206641076334 -0.0137842563000128 0.0
0.8043388098861401 0.0083420364062138 0.0
0.9068611080380219 0.0271810254788362 0.0
0.8890537974199659 -0.0191306661345549 0.0
0.9057432408328302 0.0211915489115302 0.0
0.8991452580085237 -0.0243978570100734 0.0
1.3572401789208262 0.0241677060187392 0.0
1.3483433034103600 -0.0172708492579510 0.0
1.3446766994968016 0.0126273143203503 0.0
1.3595005275653373 -0.0287963920350294 0.0
1.3888448511003317 0.0166707116972029 0.0
1.3863899517467668 -0.0182157906051694 0.0
1.2797584040161543 0.0190292418301692 0.0
1.2816145033167532 -0.0346152675140918 0.0
1.3421320397381626 -0.0052241762643480 0.0
1.3421012941967490 0.0039715651550688 0.0
0.8247731073261364 -0.0189685104194523 0.0
0.7648566672036221 0.0238423748429560 0.0
0.8177292492316368 -0.0197423573856494 0.0
0.7725165016144475 0.0240915017413402 0.0
0.6820247710372552 -0.0976960078008229 0.0
0.6809354142876404 -0.0938158634109258 0.0
1.2538305184027567 0.0879995917100416 0.0
1.2547375674631280 0.0889292648090846 0.0
1.3320149618413426 -0.0072297846457366 0.0
1.3136307091244122 -0.0092212915073927 0.0
1.3103952470258011 0.0116262112046015 0.0
1.3399383779264149 0.0115731178455327 0.0
0.8544605507463477 -0.0496641574014170 0.0
0.8514808966428903 0.0492975363384267 0.0
1.0447843388186633 -0.1031541875348425 0.0
1.0406043872218538 -0.0921551268049205 0.0
1.0573577140064609 0.1208639676356669 0.0
1.0582730536447162 0.1294839985773830 0.0
0.9183512969433407 -0.0367012772555314 0.0
0.9029916365494334 0.0507934980083100 0.0
0.9081528538400663 -0.0343970983916610 0.0
0.9135507695177718 0.0535697883961327 0.0
1.3779878285702132 -0.0141872961763278 0.0
1.3755913416902865 -0.0141050002999560 0.0
0.7776877456688713 -0.0195041478248244 0.0
0.8002954573430856 0.0002411010869842 0.0
0.7646042860443431 0.0150740894093347 0.0
0.8079271134353925 0.0306062267091512 0.0
0.7589398797502935 -0.0107789814781419 0.0
0.7603983124045320 0.0088943453238082 0.0
1.3229293932890276 -0.1056406071673451 0.0
1.3157132196060242 -0.1094679845149329 0.0
1.3212397979585031 0.1458589408572699 0.0
1.3136421832941072 0.1419326643349415 0.0
0.6597915952515947 -0.0477236688820037 0.0
0.6568869880286604 -0.0484144646751915 0.0
0.6702026675291222 0.0456064228898602 0.0
0.6685386567807503 0.0449047209449686 0.0
1.3414736210644900 -0.0000046135352394 0.0
1.3505993827702880 0.0022767238795375 0.0
1.2084051267485003 -0.0741302803749173 0.0
1.2125510443485377 -0.0741316239339017 0.0
1.2597027542748596 0.0709081083384148 0.0
1.2571316341265324 0.0740372072428939 0.0
0.9269956048321276 0.0353863649756210 0.0
0.8587617847060340 -0.0862287886303041 0.0
0.9161233654713878 0.0409015120307890 0.0
0.8710350065230875 -0.0797984932434059 0.0
1.3244118283861139 -0.0155313487443970 0.0
1.3013229535971591 0.0204326791349704 0.0
1.3151486782740858 -0.0138377018885045 0.0
1.3097269397528828 0.0221548822502742 0.0
1.3585117403572931 -0.0004223662191967 0.0
1.3553782175249891 -0.0038865736929466 0.0
0.7504481757483116 -0.0081650524514937 0.0
0.7575818219596430 0.0117647628409314 0.0
1.3152283362789168 0.0368473928383313 0.0
1.3212641156516263 0.0331383284007976 0.0
1.4255974915488090 -0.0339842115544719 0.0
1.4169554647966722 0.0298982841430258 0.0
0.8235012168946140 0.0439534727413114 0.0
0.8217652123674160 0.0465697045599229 0.0
1.3739622700590906 -0.0416723142914846 0.0
1.3585505163393099 0.0367818298925346 0.0
1.3618741058334149 -0.0522404898829989 0.0
1.3708424676811115 0.0232155304433354 0.0
1.4428948923285450 -0.0251195641348985 0.0
1.4520446377855860 0.0197419242848440 0.0
0.5968227322580070 -0.0072152409245830 0.0
0.5999955301490631 0.0078958336486702 0.0
1.4216865809516219 -0.0095030007619880 0.0
1.4239100023007039 0.0082479898074792 0.0
0.9586205854219971 0.2111771917777530 0.0
0.9406306325141414 -0.2038940782798743 0.0
1.2248274451319683 -0.0043909074636652 0.0
1.2259451029096911 0.0061577652234191 0.0
1.2935100180436396 0.0201478702071370 0.0
1.2965366242452383 -0.0373025501658540 0.0
1.3100919934835826 0.0108959409068891 0.0
1.3021706864871563 0.0081862524335845 0.0
1.1588062908198933 -0.0823271822852274 0.0
1.1608498434947909 -0.0838348278689883 0.0
1.2793502380535853 -0.0282721303934618 0.0
1.2688221461674605 0.0244600774006855 0.0
1.3818179876736651 0.0087034409885391 0.0
1.3778328628017338 -0.0114191851608196 0.0
1.2854174316054872 -0.0320110716877244 0.0
1.2752109828618372 0.0281960523390321 0.0
0.5499312165571687 0.0734786558486065 0.0
0.5475840048867231 0.0714110044062143 0.0
0.5444055165617417 -0.0590101892133377 0.0
0.5456098538123152 -0.0602400063715024 0.0
1.3968716342701555 -0.2090281812718350 0.0
1.3977148525561416 -0.2069336854373668 0.0
0.5035706682865102 0.0012846258188443 0.0
0.5073192786905503 -0.0036771138236579 0.0
1.5046003007292985 0.2266546740104746 0.0
1.5040849680112114 0.2286863505202035 0.0
0.6211195186930834 0.0926577831171776 0.0
0.6208519371416407 0.0923709638424729 0.0
1.4270953473434356 0.0127054192971713 0.0
1.4259845694016144 -0.0142005047223478 0.0
1.3223819405308785 -0.0306929089151800 0.0
1.3260728383788987 0.0336222710242702 0.0
1.3217097127635276 -0.2020645444752788 0.0
1.3227227507297612 -0.2113329940712879 0.0
1.3092046068679333 0.3000210969947543 0.0
1.3119363647526263 0.2889211285194920 0.0
1.3362679289182486 -0.0016903116667323 0.0
1.3424357399132241 -0.0042879783016215 0.0
0.5834770205445861 0.0677544014481563 0.0
0.5618825068016587 -0.0721020404981401 0.0
0.5670698740329175 0.0671859002730823 0.0
0.5775956694411564 -0.0716037040382999 0.0
0.5579647994644337 0.0222248065020879 0.0
0.5684274680852827 0.0220316409819000 0.0
0.6108498435871880 -0.0130103555958378 0.0
0.6216886861521149 -0.0147281090314736 0.0
1.1036421898616626 -0.1356389298682431 0.0
1.1081642069963935 -0.1253935510919531 0.0
1.1160709178947044 0.1477742799555736 0.0
1.1123780895230495 0.1578879918931427 0.0
1.1787063130014299 -0.2231327344576586 0.0
1.1717377611195292 0.2310549172841269 0.0
1.3313407288307717 0.0279744875628505 0.0
1.3246486523296630 0.0253759482441011 0.0
0.6090275087697481 -0.0033358503692707 0.0
0.5725988893629576 0.0009618245175673 0.0
0.6134006269759076 0.0045106338288657 0.0
0.5772871264501561 0.0007101314865369 0.0
1.3548835280213514 0.0009955802572845 0.0
1.3543710297748557 -0.0019514589824130 0.0
1.3117332299163265 -0.0187184915192277 0.0
1.3225583980608153 -0.0196533152666561 0.0
0.9172549069355498 0.2395919644937806 0.0
0.9549719021813305 -0.2290627176321080 0.0
1.1543454686431882 0.0849332648933989 0.0
1.1455626239658157 0.0864461197815036 0.0
1.1657632121259196 -0.1092500839033106 0.0
1.1544362641390744 -0.1091032091688093 0.0
0.6906517514544862 -0.1207071365635572 0.0
0.6888177165046374 0.1166268356919625 0.0
0.4214590207513474 -0.0166699303860955 0.0
0.4187718862393953 -0.0161573957912300 0.0
0.4236969064162731 -0.0147557981167492 0.0
0.4267073234076597 -0.0151635677589622 0.0
0.4588184608996875 -0.0089395241092240 0.0
0.4598114781901068 0.0093134395053390 0.0
1.2011053305202430 0.2548146122424473 0.0
1.1646067707659693 -0.2198505435563904 0.0
0.5869449113262034 -0.0664230057175233 0.0
0.5802051743492049 0.0800294562104220 0.0
0.5805478038049416 -0.0651755539930564 0.0
0.5866110961121174 0.0816915702916868 0.0
1.4259402020991800 0.0198821581218795 0.0
1.4310544092232573 -0.0287289389657562 0.0
0.5250907476961840 0.0575386226075091 0.0
0.5678983988492482 -0.0953942130074022 0.0
0.9212967645911787 0.0207743619060739 0.0
0.9225481191991958 0.0234846665346012 0.0
0.9264840302639883 -0.0169356236262736 0.0
0.9244853724978680 -0.0141197543208169 0.0
0.8716347526748565 0.0086122779249427 0.0
0.8720420162601182 0.0189213087739815 0.0
0.6308062573634323 0.0647492393493645 0.0
0.5906798830977771 -0.0692326511269677 0.0
0.6241490840962245 0.0636579704228409 0.0
0.5962508371683054 -0.0706909021135763 0.0
1.3639573901931679 0.0003598059699515 0.0
1.3629476394134941 -0.0030080910621780 0.0
0.5270711174409203 -0.0789534453057907 0.0
0.5548440777980965 0.0520375530696222 0.0
0.5428430433352632 0.0650787463716115 0.0
0.5397608135620591 -0.0649505820869598 0.0
1.2196684794824579 -0.0100279023174882 0.0
1.2224647963932513 -0.0021495126380902 0.0
1.2294226068474081 -0.0315737355530611 0.0
1.2353386154386838 -0.0275871482711257 0.0
1.3105740820450191 -0.0195211589105362 0.0
1.3017069423947529 -0.0156772467204595 0.0
1.2956746274708835 -0.0349765190645493 0.0
1.3021977843174672 -0.0309366356322420 0.0
1.2167289335592888 -0.0510147342778447 0.0
1.2270800483975330 -0.0498497247736018 0.0
0.6199473893595240 -0.0009542396125377 0.0
0.6018782845869135 0.0025129685268792 0.0
0.6108145172478198 0.0008852535818784 0.0
0.6106791263305669 -0.0023486129022297 0.0