# vtk DataFile Version 3.0
LucasCarvalhoTCC Results
ASCII

DATASET POLYDATA
FIELD FieldData 1
TIME 1 1 double
2.7

POINTS 494 float
0.0 0.0 0.0
8.0 0.0 0.0
8.0 1.0 0.0
0.0 1.0 0.0
4.0 0.0 0.0
4.0 1.0 0.0
4.0 0.35 0.0
4.0 0.65 0.0
0.2010296266416496 1.0 0.0
0.3986915135488555 1.0 0.0
0.5930420631591132 1.0 0.0
0.7841367769318693 1.0 0.0
0.9720301907499852 1.0 0.0
1.156775924166146 1.0 0.0
1.33842670621592 1.0 0.0
1.517034389070868 1.0 0.0
1.69264994674003 1.0 0.0
1.865323550794866 1.0 0.0
2.035104414722059 1.0 0.0
2.202040983487818 1.0 0.0
2.366180993436638 1.0 0.0
2.527571282866703 1.0 0.0
2.686257831390245 1.0 0.0
2.842286022819771 1.0 0.0
2.995700353514032 1.0 0.0
3.146544637914273 1.0 0.0
3.294861880721452 1.0 0.0
3.440694398353104 1.0 0.0
3.58408394609007 1.0 0.0
3.725071294102791 1.0 0.0
3.863696788294668 1.0 0.0
4.136303211705004 1.0 0.0
4.274928705896546 1.0 0.0
4.415916053908917 1.0 0.0
4.55930560164552 1.0 0.0
4.7051381192768 1.0 0.0
4.853455362083593 1.0 0.0
5.004299646483437 1.0 0.0
5.157713977177285 1.0 0.0
5.313742168606385 1.0 0.0
5.472428717129489 1.0 0.0
5.6338190065591 1.0 0.0
5.797959016507455 1.0 0.0
5.96489558527273 1.0 0.0
6.134676449200184 1.0 0.0
6.307350053255487 1.0 0.0
6.482965610925135 1.0 0.0
6.661573293780584 1.0 0.0
6.843224075830887 1.0 0.0
7.027969809247587 1.0 0.0
7.215863223066262 1.0 0.0
7.4069579368396 1.0 0.0
7.601308486450315 1.0 0.0
7.798970373357896 1.0 0.0
8.0 0.7999999999999996 0.0
8.0 0.6000000000013874 0.0
8.0 0.4000000000016649 0.0
8.0 0.2000000000008324 0.0
7.798970373357898 0.0 0.0
7.601308486450317 0.0 0.0
7.406957936839601 0.0 0.0
7.215863223066265 0.0 0.0
7.02796980924759 0.0 0.0
6.843224075830888 0.0 0.0
6.661573293780592 0.0 0.0
6.482965610925139 0.0 0.0
6.307350053255492 0.0 0.0
6.134676449200188 0.0 0.0
5.964895585272735 0.0 0.0
5.797959016507459 0.0 0.0
5.633819006559103 0.0 0.0
5.472428717129493 0.0 0.0
5.313742168606389 0.0 0.0
5.157713977177288 0.0 0.0
5.004299646483441 0.0 0.0
4.853455362083597 0.0 0.0
4.705138119276803 0.0 0.0
4.559305601645523 0.0 0.0
4.415916053908919 0.0 0.0
4.274928705896549 0.0 0.0
4.136303211705007 0.0 0.0
3.863696788294383 0.0 0.0
3.725071294102209 0.0 0.0
3.584083946089184 0.0 0.0
3.440694398352564 0.0 0.0
3.29486188072223 0.0 0.0
3.146544637916415 0.0 0.0
2.995700353517581 0.0 0.0
2.842286022824779 0.0 0.0
2.68625783139676 0.0 0.0
2.527571282874774 0.0 0.0
2.366180993446318 0.0 0.0
2.202040983499156 0.0 0.0
2.035104414735112 0.0 0.0
1.865323550807426 0.0 0.0
1.692649946751479 0.0 0.0
1.517034389081164 0.0 0.0
1.338426706225015 0.0 0.0
1.156775924174005 0.0 0.0
0.9720301907565596 0.0 0.0
0.784136776937109 0.0 0.0
0.5930420631629705 0.0 0.0
0.3986915135514271 0.0 0.0
0.2010296266429896 0.0 0.0
0.0 0.199999999999558 0.0
0.0 0.3999999999989746 0.0
0.0 0.5999999999989464 0.0
0.0 0.7999999999994731 0.0
4.065082561150232 0.3648546699507293 0.0
4.117274722996153 0.4064765305061043 0.0
4.146239186965635 0.4666218605127571 0.0
4.146239186588658 0.5333781411388893 0.0
4.117274722147235 0.5935234705584039 0.0
4.065082560620447 0.6351453303044018 0.0
3.934917439190226 0.6351453302132268 0.0
3.882725277520537 0.5935234701418048 0.0
3.853760813071839 0.5333781396514286 0.0
3.853760813263242 0.4666218595099774 0.0
3.882725277782338 0.4064765295299076 0.0
3.934917439246251 0.3648546697597932 0.0
3.348071016817302 0.5037366844559412 0.0
4.65817771841185 0.4813089492125461 0.0
5.148432135339639 0.5000000000000013 0.0
2.851567863014233 0.5000000000000465 0.0
4.406326506211093 0.3072680842959042 0.0
3.575604791543614 0.6706702532911111 0.0
4.424395205595821 0.6706702556565258 0.0
3.593673497058965 0.3072680820819204 0.0
5.648652107845511 0.5000000000000006 0.0
2.351347890458042 0.4999999999998563 0.0
1.851146954963573 0.4999999999998219 0.0
6.148853043290459 0.4999999999999989 0.0
6.65089532386231 0.5241211434250735 0.0
1.349104674975677 0.4758788558671475 0.0
7.150713697794147 0.4858064203922342 0.0
0.8492863006035025 0.4858064203396458 0.0
4.216343713145164 0.2287135668575249 0.0
3.7836562881134 0.7712864338025908 0.0
4.346988371127422 0.5000000019594898 0.0
4.213775907987267 0.7756803165215952 0.0
3.653011628408684 0.4999999990051173 0.0
3.786224091202296 0.224319683220954 0.0
7.572712389010231 0.5763628491757339 0.0
0.4272876103144935 0.5763628498169726 0.0
4.881741322202974 0.3185523670790996 0.0
3.118258676783759 0.6814476337404539 0.0
3.126854924363118 0.2792890251323842 0.0
4.873145074373641 0.7207109754187309 0.0
5.398381996912613 0.291094588046412 0.0
5.396092528392672 0.7230702977293901 0.0
2.603907471650227 0.7230702981371074 0.0
2.601618001742297 0.2910945873520305 0.0
4.065645388412852 0.1903894420877926 0.0
3.934354612281609 0.8096105573695707 0.0
4.268393145079946 0.6292513280674802 0.0
3.731606853978594 0.3707486723017213 0.0
4.265062587797852 0.3723525870906427 0.0
3.734937412407246 0.6276474138958879 0.0
5.89991820844496 0.720584760457478 0.0
5.899661142431216 0.2940789491313893 0.0
2.100338856207466 0.7059210507243335 0.0
2.100081790085733 0.2794152396968363 0.0
4.648216390708278 0.2460745758417431 0.0
3.350865525112209 0.7519279174007294 0.0
3.351783614314077 0.2460745727859678 0.0
4.649134469923633 0.7519279206208029 0.0
6.386000070083336 0.2800687217561524 0.0
6.399946740387701 0.7091877900019353 0.0
1.613999929083956 0.7199312783619409 0.0
1.600053258667474 0.2908122092889953 0.0
1.099018086220021 0.3101534564461602 0.0
1.099018086220183 0.6898465435530818 0.0
6.900981912171285 0.3101534566801202 0.0
6.900981912171287 0.689846543319878 0.0
3.934891793257755 0.2336799984692873 0.0
4.065108206439434 0.7663200008196746 0.0
5.133077706310633 0.254681732561614 0.0
5.131620328745691 0.7509194919064351 0.0
2.866922291796803 0.7453182673725732 0.0
2.868379670398546 0.2490805081265555 0.0
0.5973224633027379 0.3123440263675117 0.0
7.402677535116692 0.3123440263206204 0.0
7.70928508668797 0.2984218335093966 0.0
0.2907149122204558 0.2984218350042115 0.0
2.359042531710287 0.2526358364218651 0.0
2.362552667743482 0.7498876177132479 0.0
5.640957467742433 0.2526358368965552 0.0
5.637447332034727 0.7498876177447886 0.0
7.330771635020911 0.7204300868765696 0.0
0.6692283641678903 0.7204300870263377 0.0
6.141991504218947 0.7500064293114952 0.0
6.143214654121697 0.2541610692540839 0.0
1.858008494097047 0.2499935706645152 0.0
1.856785344746094 0.7458389307817799 0.0
1.360037479834015 0.7503851535261052 0.0
1.363297687800482 0.2332108063209677 0.0
6.636702311691573 0.7667891933666813 0.0
6.639962519949044 0.2496148464378299 0.0
7.14328150074831 0.2292696686424185 0.0
0.8567184978980538 0.2292696684503961 0.0
4.845173759433459 0.5000000012080886 0.0
3.15482623877425 0.4999999993865263 0.0
3.514470413944982 0.5755907957035395 0.0
4.485529584365944 0.5755907996488695 0.0
4.350214515329574 0.8947484376274254 0.0
3.64978548377064 0.1052515623441257 0.0
4.356280753270322 0.1397878825788729 0.0
3.643719248073251 0.8602121180766233 0.0
4.157657982820168 0.3023031440803671 0.0
3.842342017851872 0.6976968563131654 0.0
4.149794964153143 0.6947625877680722 0.0
3.850205035403508 0.3052374120341299 0.0
4.252863769441745 0.5000000013253333 0.0
3.747136230269581 0.4999999993774377 0.0
2.66150837620265 0.4835883053501762 0.0
5.338491622258749 0.4835883052760253 0.0
7.732076714471282 0.7613785341653052 0.0
0.267923285219987 0.7613785345749642 0.0
3.482582425594127 0.3988584940714734 0.0
4.517417574829351 0.3988584973195787 0.0
7.120961454429095 0.7969630876933931 0.0
0.8790385446795201 0.7969630878928393 0.0
4.524178509919695 0.1937066442020419 0.0
3.472973035782958 0.803602443762734 0.0
4.527026959328886 0.8036024455277256 0.0
3.475821495314308 0.1937066425220846 0.0
5.834485749168302 0.4775259269822466 0.0
2.16551424934095 0.5224740729963462 0.0
4.803832126993392 0.8343163881584211 0.0
3.196167871756218 0.1656836120733276 0.0
3.196167870279283 0.834316388182051 0.0
4.803832130306974 0.1656836112805605 0.0
1.646902821176459 0.5088844228822333 0.0
6.35309717778631 0.4911155766888507 0.0
4.128745436683365 0.8608937921704661 0.0
3.871254562700506 0.1391062074145501 0.0
7.783519314041498 0.4824599318584197 0.0
0.2164806854160975 0.4824599323519634 0.0
3.981228286637499 0.1341601386487245 0.0
4.018771713398118 0.8658398609794804 0.0
4.757705393330306 0.6277793253200102 0.0
3.245404476813698 0.3720431195654205 0.0
3.262406961538709 0.609092082228193 0.0
4.738552632749474 0.3854106153034425 0.0
4.980576921401999 0.1828043249223437 0.0
3.019423077460087 0.8171956749482756 0.0
4.975386875116307 0.8288560892267683 0.0
3.024613123995747 0.1711439108946455 0.0
7.537862127958827 0.7914398748884439 0.0
0.46213787149577 0.7914398749623154 0.0
4.150965283491015 0.1232311208167031 0.0
3.849034718225983 0.8767688792466098 0.0
0.6330166515036239 0.5212993800799176 0.0
7.366983347335347 0.5212993798709434 0.0
5.001451172914062 0.4591396125040952 0.0
2.998548825585332 0.5408603877155073 0.0
5.250532135494552 0.1623854812497458 0.0
5.24999687257574 0.8404382486850067 0.0
2.749794930508214 0.8396380739052673 0.0
2.749676059914328 0.161585306286623 0.0
1.150631951549359 0.5017906253149568 0.0
6.85747267660715 0.5137706215776152 0.0
2.938770240933895 0.3859183074771494 0.0
5.061229757952985 0.6140816927005173 0.0
5.521883200863776 0.8371838481144578 0.0
5.520780843451154 0.1567733764659754 0.0
2.479219155991939 0.1567733759623464 0.0
2.478116798894765 0.8371838481096507 0.0
2.208224060227917 0.1725929992863016 0.0
2.214655190115911 0.821187355218689 0.0
5.791775938918927 0.8274070011383262 0.0
5.785558009721889 0.1789659155514431 0.0
5.243140500145841 0.3651007420679131 0.0
5.247758683472709 0.6318228659349833 0.0
2.748336099792684 0.6332079670712092 0.0
2.766145970608876 0.3583112578457802 0.0
2.500794992947401 0.4517155340697119 0.0
5.499205006433885 0.4517155344186723 0.0
3.472119223331378 0.69283875816516 0.0
4.527880773131323 0.6928387614752662 0.0
2.445947440949104 0.6396216022327238 0.0
5.554052558509333 0.6396216019605415 0.0
1.976669571201813 0.1631348676957265 0.0
[...]
POINT_DATA 494

VECTORS Velocity float
0.0000000000000000 0.0000000000000000 0.0
0.8198804651560185 -0.1381089270302376 0.0
0.0000000000000000 0.0000000000000000 0.0
0.0000000000000000 0.0000000000000000 0.0
0.0000000000000000 0.0000000000000000 0.0
0.0000000000000000 0.0000000000000000 0.0
0.0000000000000000 0.0000000000000000 0.0
0.0000000000000000 0.0000000000000000 0.0
0.0000000000000000 0.0000000000000000 0.0
0.0000000000000000 0.0000000000000000 0.0
0.0000000000000000 0.0000000000000000 0.0
0.0000000000000000 0.0000000000000000 0.0
0.0000000000000000 0.0000000000000000 0.0
0.0000000000000000 0.0000000000000000 0.0
0.0000000000000000 0.0000000000000000 0.0
0.0000000000000000 0.0000000000000000 0.0
0.0000000000000000 0.0000000000000000 0.0
0.0000000000000000 0.0000000000000000 0.0
0.0000000000000000 0.0000000000000000 0.0
0.0000000000000000 0.0000000000000000 0.0
0.0000000000000000 0.0000000000000000 0.0
0.0000000000000000 0.0000000000000000 0.0
0.0000000000000000 0.0000000000000000 0.0
0.0000000000000000 0.0000000000000000 0.0
0.0000000000000000 0.0000000000000000 0.0
0.0000000000000000 0.0000000000000000 0.0
0.0000000000000000 0.0000000000000000 0.0
0.0000000000000000 0.0000000000000000 0.0
0.0000000000000000 0.0000000000000000 0.0
0.0000000000000000 0.0000000000000000 0.0
0.0000000000000000 0.0000000000000000 0.0
0.0000000000000000 0.0000000000000000 0.0
0.0000000000000000 0.0000000000000000 0.0
0.0000000000000000 0.0000000000000000 0.0
0.0000000000000000 0.0000000000000000 0.0
0.0000000000000000 0.0000000000000000 0.0
0.0000000000000000 0.0000000000000000 0.0
0.0000000000000000 0.0000000000000000 0.0
0.0000000000000000 0.0000000000000000 0.0
0.0000000000000000 0.0000000000000000 0.0
0.0000000000000000 0.0000000000000000 0.0
0.0000000000000000 0.0000000000000000 0.0
0.0000000000000000 0.0000000000000000 0.0
0.0000000000000000 0.0000000000000000 0.0
0.0000000000000000 0.0000000000000000 0.0
0.0000000000000000 0.0000000000000000 0.0
0.0000000000000000 0.0000000000000000 0.0
0.0000000000000000 0.0000000000000000 0.0
0.0000000000000000 0.0000000000000000 0.0
0.0000000000000000 0.0000000000000000 0.0
0.0000000000000000 0.0000000000000000 0.0
0.0000000000000000 0.0000000000000000 0.0
0.0000000000000000 0.0000000000000000 0.0
0.0000000000000000 0.0000000000000000 0.0
1.0771147296587857 0.5440640737004023 0.0
0.9956076340944411 0.1372323877836372 0.0
0.9602580345457840 -0.0883973636446147 0.0
1.0633913617346129 -0.4541344628512482 0.0
0.0000000000000000 0.0000000000000000 0.0
0.0000000000000000 0.0000000000000000 0.0
0.0000000000000000 0.0000000000000000 0.0
0.0000000000000000 0.0000000000000000 0.0
0.0000000000000000 0.0000000000000000 0.0
0.0000000000000000 0.0000000000000000 0.0
0.0000000000000000 0.0000000000000000 0.0
0.0000000000000000 0.0000000000000000 0.0
0.0000000000000000 0.0000000000000000 0.0
0.0000000000000000 0.0000000000000000 0.0
0.0000000000000000 0.0000000000000000 0.0
0.0000000000000000 0.0000000000000000 0.0
0.0000000000000000 0.0000000000000000 0.0
0.0000000000000000 0.0000000000000000 0.0
0.0000000000000000 0.0000000000000000 0.0
0.0000000000000000 0.0000000000000000 0.0
0.0000000000000000 0.0000000000000000 0.0
0.0000000000000000 0.0000000000000000 0.0
0.0000000000000000 0.0000000000000000 0.0
0.0000000000000000 0.0000000000000000 0.0
0.0000000000000000 0.0000000000000000 0.0
0.0000000000000000 0.0000000000000000 0.0
0.0000000000000000 0.0000000000000000 0.0
0.0000000000000000 0.0000000000000000 0.0
0.0000000000000000 0.0000000000000000 0.0
0.0000000000000000 0.0000000000000000 0.0
0.0000000000000000 0.0000000000000000 0.0
0.0000000000000000 0.0000000000000000 0.0
0.0000000000000000 0.0000000000000000 0.0
0.0000000000000000 0.0000000000000000 0.0
0.0000000000000000 0.0000000000000000 0.0
0.0000000000000000 0.0000000000000000 0.0
0.0000000000000000 0.0000000000000000 0.0
0.0000000000000000 0.0000000000000000 0.0
0.0000000000000000 0.0000000000000000 0.0
0.0000000000000000 0.0000000000000000 0.0
0.0000000000000000 0.0000000000000000 0.0
0.0000000000000000 0.0000000000000000 0.0
0.0000000000000000 0.0000000000000000 0.0
0.0000000000000000 0.0000000000000000 0.0
0.0000000000000000 0.0000000000000000 0.0
0.0000000000000000 0.0000000000000000 0.0
0.0000000000000000 0.0000000000000000 0.0
0.0000000000000000 0.0000000000000000 0.0
0.0000000000000000 0.0000000000000000 0.0
0.0000000000000000 0.0000000000000000 0.0
1.0000000000000000 0.0000000000000000 0.0
1.0000000000000000 0.0000000000000000 0.0
1.0000000000000000 0.0000000000000000 0.0
1.0000000000000000 0.0000000000000000 0.0
0.0000000000000000 0.0000000000000000 0.0
0.0000000000000000 0.0000000000000000 0.0
0.0000000000000000 0.0000000000000000 0.0
0.0000000000000000 0.0000000000000000 0.0
0.0000000000000000 0.0000000000000000 0.0
0.0000000000000000 0.0000000000000000 0.0
0.0000000000000000 0.0000000000000000 0.0
0.0000000000000000 0.0000000000000000 0.0
0.0000000000000000 0.0000000000000000 0.0
0.0000000000000000 0.0000000000000000 0.0
0.0000000000000000 0.0000000000000000 0.0
0.0000000000000000 0.0000000000000000 0.0
1.5840818793521940 -0.0098471032206286 0.0
1.5868063669670893 0.0147738886416390 0.0
1.6337609452960640 -0.0113505864618076 0.0
1.6308978160982361 -0.0188915862372624 0.0
1.3475164754000395 0.0778967855363452 0.0
1.3692455657390867 0.0614524777158108 0.0
1.4080569795037514 -0.1076748532879113 0.0
1.3871106563304636 -0.1278382360490647 0.0
1.6099118845056801 0.0010631068638896 0.0
1.6093265675278605 -0.0065731872158100 0.0
1.5568659534173594 0.0050580036315797 0.0
1.5559007430159457 -0.0007406748861732 0.0
1.5724633475004401 -0.0317314799774572 0.0
1.5724856599371162 0.0162569937064625 0.0
1.6554707029284976 0.0093489837023066 0.0
1.6521087479993959 -0.0165616224480743 0.0
1.3226795236783981 0.3133027548139433 0.0
1.3220589266295628 0.3073010108628110 0.0
1.3500473807815154 0.0223761746051173 0.0
1.3572172766006392 -0.2281530743440807 0.0
1.3495592067098496 0.0170930349654176 0.0
1.3573853721800238 -0.2321030371466024 0.0
1.5491807552302839 0.0145848930291041 0.0
1.5327201706122342 -0.0344455395331841 0.0
1.3404350638252056 0.0072881792178152 0.0
1.3416464579739853 0.0066628248814504 0.0
1.2669952296238620 -0.0010263836617547 0.0
1.2585054274623604 -0.0024770800205421 0.0
1.3049423555060760 -0.0060532331302814 0.0
1.2124006086626264 -0.0146901940151215 0.0
1.1841781215568237 0.0085191911397747 0.0
1.3258955337816889 0.0028963033014904 0.0
1.4606462560383207 0.1352821400175327 0.0
1.4610456291364666 0.1331971279911575 0.0
1.4296585821130101 -0.2695433947297690 0.0
1.4353082927647602 -0.2735115469807435 0.0
1.4409843299127487 0.3488268328162946 0.0
1.4357610888853960 0.3472804527104344 0.0
1.1817904866644651 -0.0289796671668515 0.0
1.3018402783077856 -0.0074530080663935 0.0
1.2930100120679220 -0.0160058226319634 0.0
1.1865936786161884 -0.0307515658093967 0.0
1.0842955756636234 -0.0618476409747531 0.0
1.0888741469434100 -0.0520300897681644 0.0
1.1018426052062711 0.0379995465613108 0.0
1.1098398442244164 0.0241118296507240 0.0
1.2550084471440925 0.0047560908057753 0.0
1.2408010277392258 -0.0201176561377057 0.0
1.2442892963634733 0.0182385999456386 0.0
1.2505054623185743 -0.0027534382989827 0.0
1.4400818733889982 -0.0304461284447822 0.0
1.3210123425786708 0.0533366811606464 0.0
1.4447895832615962 0.0332426122390548 0.0
1.3131387725568346 -0.0470393326544771 0.0
1.5790426807942064 -0.2262503754204357 0.0
1.5786400473115234 -0.2257397258722982 0.0
1.1576758454171034 -0.0528212119524273 0.0
1.1815452401316748 0.0568715795698469 0.0
1.1454251486656892 -0.0569156132096617 0.0
1.1898897992583166 0.0446839134450413 0.0
1.4292141502868996 0.0319749698733624 0.0
1.4397284629155107 -0.0294602476870497 0.0
1.2948142836437824 -0.1606413585118873 0.0
1.2811831334046395 0.1933762969913570 0.0
1.1907533871732954 0.0507167582992342 0.0
1.1401831935434976 -0.0045947538968847 0.0
1.1870404615147963 -0.0374357141796658 0.0
1.1552371258287857 0.0311102568469379 0.0
1.2893135330398435 0.0085133191796557 0.0
1.2961507773949394 -0.0146417744362756 0.0
1.1571867448569959 0.0377808380524093 0.0
1.2183260430771414 -0.0662399470241407 0.0
1.1599435535012523 0.0407522757352111 0.0
1.2152030779418446 -0.0648225462767624 0.0
1.1699718027847692 0.0693507677861345 0.0
1.1448801967014981 -0.0398771201651276 0.0
1.1007039398198606 -0.0579665034173402 0.0
1.2049765838075479 0.0510638972639143 0.0
1.1033083869865730 -0.0235647261673105 0.0
1.0973503822565336 0.0191366499189636 0.0
1.6038464863039454 0.0092636474984326 0.0
1.6057675403409712 -0.0001177534147327 0.0
1.4752159261065496 0.0342921824631034 0.0
1.4924270762993872 -0.0676180879957335 0.0
0.4803653034532875 -0.0128073666281345 0.0
0.4628896231753007 -0.0145084440139132 0.0
0.5782901224123926 0.1057856556251648 0.0
0.5971463930789443 0.1050935236509120 0.0
1.4638015842641594 0.4417913301842951 0.0
1.4591244924521340 0.4387155896685326 0.0
1.5424221890250696 -0.3543945605918951 0.0
1.5444623468307104 -0.3554609719428629 0.0
0.9844396182673910 0.0312165296504235 0.0
0.9850306379427529 0.0423257617568650 0.0
1.6104200779523845 0.0309810592111899 0.0
1.6029685049750502 -0.0428766364991807 0.0
1.1590641912550654 0.1959354463732466 0.0
1.1963002656382482 -0.2745220751771295 0.0
1.5147151654002577 -0.0539614265119376 0.0
1.4925435557745823 0.0140913934563306 0.0
0.7372033088627985 -0.0072317946077077 0.0
0.7586631947356711 0.0058678482982042 0.0
0.9074623581351638 -0.0165524797278046 0.0
0.9217490184667453 -0.0195696090093569 0.0
0.9368954238270408 0.0038762491917976 0.0
0.9253214281954375 0.0036544466541328 0.0
1.5767760997834903 -0.0258474281207978 0.0
1.5765913849838211 -0.0540188456431301 0.0
0.6694658546270476 -0.0851073651353585 0.0
0.6686000683618737 -0.0861677949908767 0.0
0.7161375052181083 0.0658552690636301 0.0
0.7156410973990870 0.0647824473877761 0.0
1.4957015934944622 0.0474350243846933 0.0
1.4962027982260804 0.0323338711871239 0.0
0.9011608249497322 -0.1225885517930623 0.0
0.9018275551015450 -0.1256561946707923 0.0
1.3576601140480686 0.0007201721076338 0.0
1.2764509345714594 0.0143485308862267 0.0
1.0035056610692885 -0.0936303454748025 0.0
1.0039138949271673 -0.0935115371786398 0.0
1.5115403252263340 -0.0301966055177396 0.0
1.5172922809377223 -0.0331001072893100 0.0
1.4791687059754768 0.0415475297441501 0.0
1.4832317165987150 0.0485295734772934 0.0
0.7537118158476137 -0.0068927062896558 0.0
0.7566996388923639 -0.0058754693728124 0.0
0.7078105874259041 0.0203622737574886 0.0
0.6978956230913874 0.0178030930214462 0.0
0.8172210813117712 0.0370480532297103 0.0
0.8404280089150705 -0.0646904075067009 0.0
0.7473142798372360 0.0887234500777429 0.0
0.7499150612864172 0.0858927536163970 0.0
1.5779028144614560 -0.0109301850046083 0.0
1.5879222019768180 0.0058145289154885 0.0
1.5880235406351255 -0.0077305405012058 0.0
1.5887948710606461 -0.0077535499982183 0.0
0.7033504894793999 -0.0027980220790613 0.0
0.7274825114698593 0.0258717789273632 0.0
0.7083065158099928 -0.0128249837551625 0.0
0.7057311363224443 0.0180988141311524 0.0
1.6261613981520830 -0.0015487804583922 0.0
1.6294378530196487 -0.0446604573618339 0.0
1.5179744866650768 -0.0132355112867044 0.0
1.5191059119930832 -0.0153311424934997 0.0
0.7156306526725137 -0.0105144473707816 0.0
0.6388793743996167 0.0177574953946838 0.0
0.6509627065576555 -0.0195383525673599 0.0
0.6978619470231426 0.0088919810057418 0.0
0.8058112279940335 0.0305588632315542 0.0
0.7793728619751112 -0.0214711846826605 0.0
0.8101686053391614 0.0210362115502514 0.0
0.7934404577915271 -0.0272377709255056 0.0
1.4132514830095706 -0.0089442323920925 0.0
1.4374345410670968 0.0007778037048208 0.0
1.4166014188587912 -0.0014497853229592 0.0
1.4373073030175609 0.0058909976813446 0.0
1.5775156324607715 0.0021307239200839 0.0
1.5661415283970592 -0.0104763032316150 0.0
1.3141909576592312 0.0092479335548449 0.0
1.3566683091654972 -0.0295328183381938 0.0
1.4089016861395924 0.0033735173250388 0.0
1.4162034986262912 -0.0132843514421884 0.0
0.7224721023823847 -0.0170284207537159 0.0
0.6698668842301335 0.0191690034147795 0.0
0.7237771998724191 -0.0184824015563502 0.0
0.6716235315348379 0.0205657811640327 0.0
0.5612801805816623 -0.1158211053039012 0.0
0.5652804761580142 -0.1107203846839015 0.0
1.2865208979654652 0.1174794073558546 0.0
1.2856534260842498 0.1151831834909343 0.0
1.4209985632655842 -0.0147342208092778 0.0
1.3833483352672737 -0.0390830451489999 0.0
1.3872410519173304 0.0225333504501301 0.0
1.4221627658080631 -0.0025824129310957 0.0
0.7984533980425903 -0.0651582798612871 0.0
0.7980425128588532 0.0748895556113574 0.0
1.1186310673898214 -0.1532068229753986 0.0
1.1190670878178355 -0.1491366984743242 0.0
1.1232655660311910 0.2168790682238553 0.0
1.1186162397532649 0.2184076211939844 0.0
0.8463710670362744 -0.0427410189479864 0.0
0.8075622784821910 0.0490090329734916 0.0
0.8419495967088683 -0.0385777752341853 0.0
0.8132345717662569 0.0550846335520852 0.0
1.5533116093914987 -0.0100501130051526 0.0
1.5536186846384163 -0.0190353187257154 0.0
0.6849921102279231 -0.0209561497553779 0.0
0.7036228580932854 0.0036341637604485 0.0
0.6473733600060536 0.0248077756035018 0.0
0.7315115855608375 0.0421456879762031 0.0
0.6609690204038070 0.0018143576697282 0.0
0.6657535407792255 -0.0023333918130919 0.0
1.4095521193092526 -0.2046606033111091 0.0
1.4063893717175942 -0.1968131037468448 0.0
1.2738726944564340 0.2563512652676050 0.0
1.2742758329143522 0.2405268358900050 0.0
0.4842128887401934 -0.0512852721661975 0.0
0.4918253604174076 -0.0505697726907175 0.0
0.4909362505155508 0.0522865363326188 0.0
0.4987457617701440 0.0505598189708013 0.0
1.4018246596395352 -0.0059041240134881 0.0
1.4049118154411084 -0.0031775694754044 0.0
1.4167448110619225 -0.1559931816331722 0.0
1.4312133520120551 -0.1545884729497549 0.0
1.4397539407893807 0.1711081016954708 0.0
1.4212747955751690 0.1681304284560670 0.0
0.8525560925779838 0.0396178265990616 0.0
0.7446767466054646 -0.1086942920999061 0.0
0.8387472855689422 0.0508297206901746 0.0
0.7628024042481871 -0.0926858825135270 0.0
1.3967494485797221 -0.0446603913048625 0.0
1.3695504985991385 0.0513663090709002 0.0
1.3919675353413934 -0.0378091545697464 0.0
1.3727959545020103 0.0592942696057596 0.0
1.5099186437252328 0.0002410467436237 0.0
1.5085700954518979 -0.0305368797285790 0.0
0.6469420159704937 0.0019424604134832 0.0
0.6496810351174221 0.0046458356243522 0.0
1.3901693723474313 0.0790450873593668 0.0
1.4023646775766345 0.0531343804883936 0.0
1.5194093836573825 -0.0418010209968343 0.0
1.4952094421434763 0.0456265989526192 0.0
0.7040456381403130 0.0897863415928050 0.0
0.6915122020442858 0.0972413430033842 0.0
1.4622496838552701 -0.0287486420009120 0.0
1.4144688825150107 0.0355026228260785 0.0
1.4140378416676045 -0.0497000653580103 0.0
1.4618512744008580 0.0042152677353427 0.0
1.6329167167116998 0.0188366290901173 0.0
1.6463021759622083 -0.0259057155767992 0.0
0.5034593344683732 0.0002738517924694 0.0
0.5015746337504789 0.0017611275645919 0.0
1.5286349892808504 -0.0314239481214187 0.0
1.5257531651775056 0.0310067492626117 0.0
0.9374254973823251 0.2269514791201586 0.0
0.9057859927305030 -0.2232920595443741 0.0
1.4933430686620328 -0.0152685279068668 0.0
1.4915369298514842 -0.0049073156400109 0.0
1.3129485523923126 0.0062872218982534 0.0
1.3550344641035814 -0.0305696665149371 0.0
1.3234864614929414 -0.0159459008500730 0.0
1.3275968895737980 -0.0154203760170826 0.0
1.2049465241632933 -0.1184011513997616 0.0
1.2049976159162519 -0.1184865088187834 0.0
1.4866335203315322 -0.0184224549597141 0.0
1.4380690941097769 0.0016196405336958 0.0
1.4525703368464702 -0.0304219022783588 0.0
1.4411083818092114 0.0317131179378487 0.0
1.4940775013293797 -0.0238395550027115 0.0
1.4442900323805166 0.0070270508694646 0.0
0.4305116536985061 0.0481054075856919 0.0
0.4331152123000429 0.0446545503757167 0.0
0.4260816299973438 -0.0318440503024566 0.0
0.4190697351138946 -0.0352385868861524 0.0
1.4356341057658000 -0.3263200408297600 0.0
1.4368342174890441 -0.3291234590444247 0.0
0.3969346703695337 0.0066997855314365 0.0
0.4058604045536516 -0.0108953148828328 0.0
1.5125915081329977 0.3234811039294526 0.0
1.5139337492308291 0.3182764712614834 0.0
0.5924199314373045 0.0984374678677080 0.0
0.5932879374748945 0.0973409471834743 0.0
1.5179209097428787 0.0234787853458539 0.0
1.5212321532841968 -0.0226271061098648 0.0
1.3282384871640518 -0.0150288087270509 0.0
1.3414709792049408 0.0142388050644985 0.0
1.4576365685791040 -0.3688996334333431 0.0
1.4534607511906892 -0.3657131129255030 0.0
1.3977906003794445 0.4780271629392366 0.0
1.4073911224952314 0.4747565404166069 0.0
1.5851692587861721 0.0084451297713877 0.0
1.5832265013330542 0.0087026430033971 0.0
0.4860096373671809 0.0546321594002827 0.0
0.4649171414593806 -0.0606198392326787 0.0
0.4790701103252735 0.0585946204021770 0.0
0.4747766147588636 -0.0569818138859254 0.0
0.3913177886160378 0.0277473766437698 0.0
0.4121937330493189 0.0279359949095776 0.0
0.4272179609218145 -0.0150934229833228 0.0
0.4487601989273826 -0.0164222926024582 0.0
1.2373415390094251 -0.2010399487326759 0.0
1.2542082136094850 -0.2018546388410201 0.0
1.2666863312611649 0.2729495753372193 0.0
1.2506808712641206 0.2724335051641021 0.0
1.2071338568475545 -0.2719892783750407 0.0
1.1809276088901881 0.2659225061450738 0.0
1.4503077326185476 0.0036587721829986 0.0
1.4571206558747729 0.0155848566733246 0.0
0.5100704362720889 -0.0092063303347395 0.0
0.4851940094482722 -0.0005248201596114 0.0
0.5200860730943885 0.0142009102342757 0.0
0.4984528910403010 0.0043956846950892 0.0
1.4854540488015817 -0.0205263850904610 0.0
1.4735621562255681 0.0051986112377589 0.0
1.3334381867696723 -0.0257112576859794 0.0
1.3345742942577616 -0.0233121839572009 0.0
0.8721544203366578 0.2643026788649080 0.0
0.9351815001226461 -0.2433746991780116 0.0
1.0439761102707508 0.0778006458801849 0.0
1.0496505018773457 0.0835026078816581 0.0
1.0622735222240076 -0.1013302438917114 0.0
1.0620447593707534 -0.1033557176013407 0.0
0.6352475294819211 -0.1340883752073356 0.0
0.6496501234112017 0.1422352651182550 0.0
0.2883635640654346 -0.0250437368042539 0.0
0.2911834984271827 -0.0241923747441163 0.0
0.2973448311579394 -0.0099460936153197 0.0
0.2963355700178419 -0.0098110867911814 0.0
0.3562775286704892 -0.0116639974529302 0.0
0.3560943901609166 0.0118275009411604 0.0
1.2242592404671493 0.3282121934217178 0.0
1.1734605207901951 -0.2645068036647114 0.0
0.5059528899731809 -0.0602240708949274 0.0
0.4949911863736186 0.0721018845363044 0.0
0.5049868480485465 -0.0594392405508679 0.0
0.4963290698666399 0.0738815875823734 0.0
1.4848593011498523 0.0482624556486622 0.0
1.4954415369615583 -0.0612424505385629 0.0
0.4522364080059746 0.0758261496715969 0.0
0.5225010544801458 -0.1242953132685798 0.0
0.9592858382546737 0.0602167052732386 0.0
0.9556258154752383 0.0586055257374541 0.0
0.9822106193638326 -0.0570052418936870 0.0
0.9828305553147353 -0.0569327602757341 0.0
0.8751436603834669 0.0279729705739143 0.0
0.8756120827662949 0.0374903759652491 0.0
0.5329525906610556 0.0443313477471224 0.0
0.5080569076369739 -0.0575691036568238 0.0
0.5301561285302251 0.0430090572076061 0.0
0.5068378122742309 -0.0577248153481129 0.0
1.5432962874493077 -0.0059797476774686 0.0
1.5399015828802793 -0.0030889864806689 0.0
0.4251589391610077 -0.0722369224586203 0.0
0.4742110975071376 0.0498323824446757 0.0
0.4594113345509088 0.0610800391401354 0.0
0.4444275166383135 -0.0608281759118120 0.0
1.0216141086055939 0.0372328402358520 0.0
1.0561300053588718 0.0397815262384220 0.0
1.0866214738901245 -0.0545392618755281 0.0
1.0630224992573987 -0.0577190680295518 0.0
1.3131353127033232 0.0170405603863234 0.0
1.3102921485042354 0.0250064826691429 0.0
1.3551121653459448 -0.0671556799083302 0.0
1.3685050905915317 -0.0402775860296687 0.0
1.0655150241350224 -0.1197648597381624 0.0
1.0613358960783954 -0.1258650263323293 0.0
0.5289850910355703 -0.0017191905500918 0.0
0.5301998569192468 0.0077344789465236 0.0
0.5361592078853106 0.0042114542881734 0.0
0.5208697330006624 -0.0060882797238652 0.0