# vtk DataFile Version 3.0
LucasCarvalhoTCC Results
ASCII

DATASET POLYDATA
FIELD FieldData 1
TIME 1 1 double
3.6

POINTS 494 float
0.0 0.0 0.0
8.0 0.0 0.0
8.0 1.0 0.0
0.0 1.0 0.0
4.0 0.0 0.0
4.0 1.0 0.0
4.0 0.35 0.0
4.0 0.65 0.0
0.2010296266416496 1.0 0.0
0.3986915135488555 1.0 0.0
0.5930420631591132 1.0 0.0
0.7841367769318693 1.0 0.0
0.9720301907499852 1.0 0.0
1.156775924166146 1.0 0.0
1.33842670621592 1.0 0.0
1.517034389070868 1.0 0.0
1.69264994674003 1.0 0.0
1.865323550794866 1.0 0.0
2.035104414722059 1.0 0.0
2.202040983487818 1.0 0.0
2.366180993436638 1.0 0.0
2.527571282866703 1.0 0.0
2.686257831390245 1.0 0.0
2.842286022819771 1.0 0.0
2.995700353514032 1.0 0.0
3.146544637914273 1.0 0.0
3.294861880721452 1.0 0.0
3.440694398353104 1.0 0.0
3.58408394609007 1.0 0.0
3.725071294102791 1.0 0.0
3.863696788294668 1.0 0.0
4.136303211705004 1.0 0.0
4.274928705896546 1.0 0.0
4.415916053908917 1.0 0.0
4.55930560164552 1.0 0.0
4.7051381192768 1.0 0.0
4.853455362083593 1.0 0.0
5.004299646483437 1.0 0.0
5.157713977177285 1.0 0.0
5.313742168606385 1.0 0.0
5.472428717129489 1.0 0.0
5.6338190065591 1.0 0.0
5.797959016507455 1.0 0.0
5.96489558527273 1.0 0.0
6.134676449200184 1.0 0.0
6.307350053255487 1.0 0.0
6.482965610925135 1.0 0.0
6.661573293780584 1.0 0.0
6.843224075830887 1.0 0.0
7.027969809247587 1.0 0.0
7.215863223066262 1.0 0.0
7.4069579368396 1.0 0.0
7.601308486450315 1.0 0.0
7.798970373357896 1.0 0.0
8.0 0.7999999999999996 0.0
8.0 0.6000000000013874 0.0
8.0 0.4000000000016649 0.0
8.0 0.2000000000008324 0.0
7.798970373357898 0.0 0.0
7.601308486450317 0.0 0.0
7.406957936839601 0.0 0.0
7.215863223066265 0.0 0.0
7.02796980924759 0.0 0.0
6.843224075830888 0.0 0.0
6.661573293780592 0.0 0.0
6.482965610925139 0.0 0.0
6.307350053255492 0.0 0.0
6.134676449200188 0.0 0.0
5.964895585272735 0.0 0.0
5.797959016507459 0.0 0.0
5.633819006559103 0.0 0.0
5.472428717129493 0.0 0.0
5.313742168606389 0.0 0.0
5.157713977177288 0.0 0.0
5.004299646483441 0.0 0.0
4.853455362083597 0.0 0.0
4.705138119276803 0.0 0.0
4.559305601645523 0.0 0.0
4.415916053908919 0.0 0.0
4.274928705896549 0.0 0.0
4.136303211705007 0.0 0.0
3.863696788294383 0.0 0.0
3.725071294102209 0.0 0.0
3.584083946089184 0.0 0.0
3.440694398352564 0.0 0.0
3.29486188072223 0.0 0.0
3.146544637916415 0.0 0.0
2.995700353517581 0.0 0.0
2.842286022824779 0.0 0.0
2.68625783139676 0.0 0.0
2.527571282874774 0.0 0.0
2.366180993446318 0.0 0.0
2.202040983499156 0.0 0.0
2.035104414735112 0.0 0.0
1.865323550807426 0.0 0.0
1.692649946751479 0.0 0.0
1.517034389081164 0.0 0.0
1.338426706225015 0.0 0.0
1.156775924174005 0.0 0.0
0.9720301907565596 0.0 0.0
0.784136776937109 0.0 0.0
0.5930420631629705 0.0 0.0
0.3986915135514271 0.0 0.0
0.2010296266429896 0.0 0.0
0.0 0.199999999999558 0.0
0.0 0.3999999999989746 0.0
0.0 0.5999999999989464 0.0
0.0 0.7999999999994731 0.0
4.065082561150232 0.3648546699507293 0.0
4.117274722996153 0.4064765305061043 0.0
4.146239186965635 0.4666218605127571 0.0
4.146239186588658 0.5333781411388893 0.0
4.117274722147235 0.5935234705584039 0.0
4.065082560620447 0.6351453303044018 0.0
3.934917439190226 0.6351453302132268 0.0
3.882725277520537 0.5935234701418048 0.0
3.853760813071839 0.5333781396514286 0.0
3.853760813263242 0.4666218595099774 0.0
3.882725277782338 0.4064765295299076 0.0
3.934917439246251 0.3648546697597932 0.0
3.348071016817302 0.5037366844559412 0.0
4.65817771841185 0.4813089492125461 0.0
5.148432135339639 0.5000000000000013 0.0
2.851567863014233 0.5000000000000465 0.0
4.406326506211093 0.3072680842959042 0.0
3.575604791543614 0.6706702532911111 0.0
4.424395205595821 0.6706702556565258 0.0
3.593673497058965 0.3072680820819204 0.0
5.648652107845511 0.5000000000000006 0.0
2.351347890458042 0.4999999999998563 0.0
1.851146954963573 0.4999999999998219 0.0
6.148853043290459 0.4999999999999989 0.0
6.65089532386231 0.5241211434250735 0.0
1.349104674975677 0.4758788558671475 0.0
7.150713697794147 0.4858064203922342 0.0
0.8492863006035025 0.4858064203396458 0.0
4.216343713145164 0.2287135668575249 0.0
3.7836562881134 0.7712864338025908 0.0
4.346988371127422 0.5000000019594898 0.0
4.213775907987267 0.7756803165215952 0.0
3.653011628408684 0.4999999990051173 0.0
3.786224091202296 0.224319683220954 0.0
7.572712389010231 0.5763628491757339 0.0
0.4272876103144935 0.5763628498169726 0.0
4.881741322202974 0.3185523670790996 0.0
3.118258676783759 0.6814476337404539 0.0
3.126854924363118 0.2792890251323842 0.0
4.873145074373641 0.7207109754187309 0.0
5.398381996912613 0.291094588046412 0.0
5.396092528392672 0.7230702977293901 0.0
2.603907471650227 0.7230702981371074 0.0
2.601618001742297 0.2910945873520305 0.0
4.065645388412852 0.1903894420877926 0.0
3.934354612281609 0.8096105573695707 0.0
4.268393145079946 0.6292513280674802 0.0
3.731606853978594 0.3707486723017213 0.0
4.265062587797852 0.3723525870906427 0.0
3.734937412407246 0.6276474138958879 0.0
5.89991820844496 0.720584760457478 0.0
5.899661142431216 0.2940789491313893 0.0
2.100338856207466 0.7059210507243335 0.0
2.100081790085733 0.2794152396968363 0.0
4.648216390708278 0.2460745758417431 0.0
3.350865525112209 0.7519279174007294 0.0
3.351783614314077 0.2460745727859678 0.0
4.649134469923633 0.7519279206208029 0.0
6.386000070083336 0.2800687217561524 0.0
6.399946740387701 0.7091877900019353 0.0
1.613999929083956 0.7199312783619409 0.0
1.600053258667474 0.2908122092889953 0.0
1.099018086220021 0.3101534564461602 0.0
1.099018086220183 0.6898465435530818 0.0
6.900981912171285 0.3101534566801202 0.0
6.900981912171287 0.689846543319878 0.0
3.934891793257755 0.2336799984692873 0.0
4.065108206439434 0.7663200008196746 0.0
5.133077706310633 0.254681732561614 0.0
5.131620328745691 0.7509194919064351 0.0
2.866922291796803 0.7453182673725732 0.0
2.868379670398546 0.2490805081265555 0.0
0.5973224633027379 0.3123440263675117 0.0
7.402677535116692 0.3123440263206204 0.0
7.70928508668797 0.2984218335093966 0.0
0.2907149122204558 0.2984218350042115 0.0
2.359042531710287 0.2526358364218651 0.0
2.362552667743482 0.7498876177132479 0.0
5.640957467742433 0.2526358368965552 0.0
5.637447332034727 0.7498876177447886 0.0
7.330771635020911 0.7204300868765696 0.0
0.6692283641678903 0.7204300870263377 0.0
6.141991504218947 0.7500064293114952 0.0
6.143214654121697 0.2541610692540839 0.0
1.858008494097047 0.2499935706645152 0.0
1.856785344746094 0.7458389307817799 0.0
1.360037479834015 0.7503851535261052 0.0
1.363297687800482 0.2332108063209677 0.0
6.636702311691573 0.7667891933666813 0.0
6.639962519949044 0.2496148464378299 0.0
7.14328150074831 0.2292696686424185 0.0
0.8567184978980538 0.2292696684503961 0.0
4.845173759433459 0.5000000012080886 0.0
3.15482623877425 0.4999999993865263 0.0
3.514470413944982 0.5755907957035395 0.0
4.485529584365944 0.5755907996488695 0.0
4.350214515329574 0.8947484376274254 0.0
3.64978548377064 0.1052515623441257 0.0
4.356280753270322 0.1397878825788729 0.0
3.643719248073251 0.8602121180766233 0.0
4.157657982820168 0.3023031440803671 0.0
3.842342017851872 0.6976968563131654 0.0
4.149794964153143 0.6947625877680722 0.0
3.850205035403508 0.3052374120341299 0.0
4.252863769441745 0.5000000013253333 0.0
3.747136230269581 0.4999999993774377 0.0
2.66150837620265 0.4835883053501762 0.0
5.338491622258749 0.4835883052760253 0.0
7.732076714471282 0.7613785341653052 0.0
0.267923285219987 0.7613785345749642 0.0
3.482582425594127 0.3988584940714734 0.0
4.517417574829351 0.3988584973195787 0.0
7.120961454429095 0.7969630876933931 0.0
0.8790385446795201 0.7969630878928393 0.0
4.524178509919695 0.1937066442020419 0.0
3.472973035782958 0.803602443762734 0.0
4.527026959328886 0.8036024455277256 0.0
3.475821495314308 0.1937066425220846 0.0
5.834485749168302 0.4775259269822466 0.0
2.16551424934095 0.5224740729963462 0.0
4.803832126993392 0.8343163881584211 0.0
3.196167871756218 0.1656836120733276 0.0
3.196167870279283 0.834316388182051 0.0
4.803832130306974 0.1656836112805605 0.0
1.646902821176459 0.5088844228822333 0.0
6.35309717778631 0.4911155766888507 0.0
4.128745436683365 0.8608937921704661 0.0
3.871254562700506 0.1391062074145501 0.0
7.783519314041498 0.4824599318584197 0.0
0.2164806854160975 0.4824599323519634 0.0
3.981228286637499 0.1341601386487245 0.0
4.018771713398118 0.8658398609794804 0.0
4.757705393330306 0.6277793253200102 0.0
3.245404476813698 0.3720431195654205 0.0
3.262406961538709 0.609092082228193 0.0
4.738552632749474 0.3854106153034425 0.0
4.980576921401999 0.1828043249223437 0.0
3.019423077460087 0.8171956749482756 0.0
4.975386875116307 0.8288560892267683 0.0
3.024613123995747 0.1711439108946455 0.0
7.537862127958827 0.7914398748884439 0.0
0.46213787149577 0.7914398749623154 0.0
4.150965283491015 0.1232311208167031 0.0
3.849034718225983 0.8767688792466098 0.0
0.6330166515036239 0.5212993800799176 0.0
7.366983347335347 0.5212993798709434 0.0
5.001451172914062 0.4591396125040952 0.0
2.998548825585332 0.5408603877155073 0.0
5.250532135494552 0.1623854812497458 0.0
5.24999687257574 0.8404382486850067 0.0
2.749794930508214 0.8396380739052673 0.0
2.749676059914328 0.161585306286623 0.0
1.150631951549359 0.5017906253149568 0.0
6.85747267660715 0.5137706215776152 0.0
2.938770240933895 0.3859183074771494 0.0
5.061229757952985 0.6140816927005173 0.0
5.521883200863776 0.8371838481144578 0.0
5.520780843451154 0.1567733764659754 0.0
2.479219155991939 0.1567733759623464 0.0
2.478116798894765 0.8371838481096507 0.0
2.208224060227917 0.1725929992863016 0.0
2.214655190115911 0.821187355218689 0.0
5.791775938918927 0.8274070011383262 0.0
5.785558009721889 0.1789659155514431 0.0
5.243140500145841 0.3651007420679131 0.0
5.247758683472709 0.6318228659349833 0.0
2.748336099792684 0.6332079670712092 0.0
2.766145970608876 0.3583112578457802 0.0
2.500794992947401 0.4517155340697119 0.0
5.499205006433885 0.4517155344186723 0.0
3.472119223331378 0.69283875816516 0.0
4.527880773131323 0.6928387614752662 0.0
2.445947440949104 0.6396216022327238 0.0
5.554052558509333 0.6396216019605415 0.0
1.976669571201813 0.1631348676957265 0.0
[...]
POINT_DATA 494

VECTORS Velocity float
0.0000000000000000 0.0000000000000000 0.0
0.8198964420684497 -0.1380641193119763 0.0
0.0000000000000000 0.0000000000000000 0.0
0.0000000000000000 0.0000000000000000 0.0
0.0000000000000000 0.0000000000000000 0.0
0.0000000000000000 0.0000000000000000 0.0
0.0000000000000000 0.0000000000000000 0.0
0.0000000000000000 0.0000000000000000 0.0
0.0000000000000000 0.0000000000000000 0.0
0.0000000000000000 0.0000000000000000 0.0
0.0000000000000000 0.0000000000000000 0.0
0.0000000000000000 0.0000000000000000 0.0
0.0000000000000000 0.0000000000000000 0.0
0.0000000000000000 0.0000000000000000 0.0
0.0000000000000000 0.0000000000000000 0.0
0.0000000000000000 0.0000000000000000 0.0
0.0000000000000000 0.0000000000000000 0.0
0.0000000000000000 0.0000000000000000 0.0
0.0000000000000000 0.0000000000000000 0.0
0.0000000000000000 0.0000000000000000 0.0
0.0000000000000000 0.0000000000000000 0.0
0.0000000000000000 0.0000000000000000 0.0
0.0000000000000000 0.0000000000000000 0.0
0.0000000000000000 0.0000000000000000 0.0
0.0000000000000000 0.0000000000000000 0.0
0.0000000000000000 0.0000000000000000 0.0
0.0000000000000000 0.0000000000000000 0.0
0.0000000000000000 0.0000000000000000 0.0
0.0000000000000000 0.0000000000000000 0.0
0.0000000000000000 0.0000000000000000 0.0
0.0000000000000000 0.0000000000000000 0.0
0.0000000000000000 0.0000000000000000 0.0
0.0000000000000000 0.0000000000000000 0.0
0.0000000000000000 0.0000000000000000 0.0
0.0000000000000000 0.0000000000000000 0.0
0.0000000000000000 0.0000000000000000 0.0
0.0000000000000000 0.0000000000000000 0.0
0.0000000000000000 0.0000000000000000 0.0
0.0000000000000000 0.0000000000000000 0.0
0.0000000000000000 0.0000000000000000 0.0
0.0000000000000000 0.0000000000000000 0.0
0.0000000000000000 0.0000000000000000 0.0
0.0000000000000000 0.0000000000000000 0.0
0.0000000000000000 0.0000000000000000 0.0
0.0000000000000000 0.0000000000000000 0.0
0.0000000000000000 0.0000000000000000 0.0
0.0000000000000000 0.0000000000000000 0.0
0.0000000000000000 0.0000000000000000 0.0
0.0000000000000000 0.0000000000000000 0.0
0.0000000000000000 0.0000000000000000 0.0
0.0000000000000000 0.0000000000000000 0.0
0.0000000000000000 0.0000000000000000 0.0
0.0000000000000000 0.0000000000000000 0.0
0.0000000000000000 0.0000000000000000 0.0
1.0770909361210210 0.5443812506857640 0.0
0.9956023007437609 0.1378580310215779 0.0
0.9602310805278111 -0.0878216048369699 0.0
1.0633876915964999 -0.4539278824628017 0.0
0.0000000000000000 0.0000000000000000 0.0
0.0000000000000000 0.0000000000000000 0.0
0.0000000000000000 0.0000000000000000 0.0
0.0000000000000000 0.0000000000000000 0.0
0.0000000000000000 0.0000000000000000 0.0
0.0000000000000000 0.0000000000000000 0.0
0.0000000000000000 0.0000000000000000 0.0
0.0000000000000000 0.0000000000000000 0.0
0.0000000000000000 0.0000000000000000 0.0
0.0000000000000000 0.0000000000000000 0.0
0.0000000000000000 0.0000000000000000 0.0
0.0000000000000000 0.0000000000000000 0.0
0.0000000000000000 0.0000000000000000 0.0
0.0000000000000000 0.0000000000000000 0.0
0.0000000000000000 0.0000000000000000 0.0
0.0000000000000000 0.0000000000000000 0.0
0.0000000000000000 0.0000000000000000 0.0
0.0000000000000000 0.0000000000000000 0.0
0.0000000000000000 0.0000000000000000 0.0
0.0000000000000000 0.0000000000000000 0.0
0.0000000000000000 0.0000000000000000 0.0
0.0000000000000000 0.0000000000000000 0.0
0.0000000000000000 0.0000000000000000 0.0
0.0000000000000000 0.0000000000000000 0.0
0.0000000000000000 0.0000000000000000 0.0
0.0000000000000000 0.0000000000000000 0.0
0.0000000000000000 0.0000000000000000 0.0
0.0000000000000000 0.0000000000000000 0.0
0.0000000000000000 0.0000000000000000 0.0
0.0000000000000000 0.0000000000000000 0.0
0.0000000000000000 0.0000000000000000 0.0
0.0000000000000000 0.0000000000000000 0.0
0.0000000000000000 0.0000000000000000 0.0
0.0000000000000000 0.0000000000000000 0.0
0.0000000000000000 0.0000000000000000 0.0
0.0000000000000000 0.0000000000000000 0.0
0.0000000000000000 0.0000000000000000 0.0
0.0000000000000000 0.0000000000000000 0.0
0.0000000000000000 0.0000000000000000 0.0
0.0000000000000000 0.0000000000000000 0.0
0.0000000000000000 0.0000000000000000 0.0
0.0000000000000000 0.0000000000000000 0.0
0.0000000000000000 0.0000000000000000 0.0
0.0000000000000000 0.0000000000000000 0.0
0.0000000000000000 0.0000000000000000 0.0
0.0000000000000000 0.0000000000000000 0.0
1.0000000000000000 0.0000000000000000 0.0
1.0000000000000000 0.0000000000000000 0.0
1.0000000000000000 0.0000000000000000 0.0
1.0000000000000000 0.0000000000000000 0.0
0.0000000000000000 0.0000000000000000 0.0
0.0000000000000000 0.0000000000000000 0.0
0.0000000000000000 0.0000000000000000 0.0
0.0000000000000000 0.0000000000000000 0.0
0.0000000000000000 0.0000000000000000 0.0
0.0000000000000000 0.0000000000000000 0.0
0.0000000000000000 0.0000000000000000 0.0
0.0000000000000000 0.0000000000000000 0.0
0.0000000000000000 0.0000000000000000 0.0
0.0000000000000000 0.0000000000000000 0.0
0.0000000000000000 0.0000000000000000 0.0
0.0000000000000000 0.0000000000000000 0.0
1.6015314140832173 -0.0137022083591004 0.0
1.6038662205925889 0.0130457897103070 0.0
1.6374350393064878 -0.0118632390983631 0.0
1.6345147934528750 -0.0172685219401263 0.0
1.3427187819124820 0.0836842091379439 0.0
1.3675754748032061 0.0639335168364771 0.0
1.4111608348099434 -0.1091126463059778 0.0
1.3876244177904065 -0.1325430323231059 0.0
1.6117806439447404 0.0004262418202632 0.0
1.6112613265207001 -0.0085023074717801 0.0
1.5577448787938915 0.0057363132605292 0.0
1.5568846292982248 -0.0007914672117486 0.0
1.5731639180809662 -0.0318311942806312 0.0
1.5731795110660749 0.0167450093019493 0.0
1.6563116014054908 0.0098461576317618 0.0
1.6529218523114688 -0.0171450517074978 0.0
1.3193871387961882 0.3207573258967997 0.0
1.3188884664233751 0.3140731628183869 0.0
1.3676662622665263 0.0234633009898085 0.0
1.3524872120441174 -0.2346047253111871 0.0
1.3675016891646525 0.0178867929705659 0.0
1.3521061686763529 -0.2393915405846606 0.0
1.5492252221097726 0.0141729857930676 0.0
1.5329827177952704 -0.0339714829870275 0.0
1.3407009521164790 0.0043070846326858 0.0
1.3431691965485857 0.0043631162002140 0.0
1.2633306341980806 0.0023544847926704 0.0
1.2562042461080971 0.0000100140214795 0.0
1.3046197726041209 -0.0066259660232613 0.0
1.2115959631292070 -0.0147896603950127 0.0
1.1817263847718111 0.0084351804509823 0.0
1.3270561636888862 0.0034068790309127 0.0
1.4606669161834380 0.1367275328656327 0.0
1.4610506800658178 0.1345704458814032 0.0
1.4374506739481305 -0.2763881427908793 0.0
1.4433656055274202 -0.2814815476177558 0.0
1.4426355999404885 0.3594862930308902 0.0
1.4378757549013121 0.3565805637475582 0.0
1.1804811545984495 -0.0288731226023606 0.0
1.3025297371238427 -0.0079026204528309 0.0
1.2938684069914186 -0.0175107374048012 0.0
1.1850437185992586 -0.0315211545305787 0.0
1.0772489758706907 -0.0665787694851299 0.0
1.0835456740518610 -0.0566014066115890 0.0
1.0943559560537870 0.0421571747812186 0.0
1.1046196452296622 0.0279311744004711 0.0
1.2557769672934485 0.0044391314855996 0.0
1.2400436074944892 -0.0205196489134976 0.0
1.2446705412914263 0.0194857517454291 0.0
1.2501778675851447 -0.0014313298353589 0.0
1.4406040970899503 -0.0313797984914298 0.0
1.3205140237732005 0.0527187874276141 0.0
1.4457079746074348 0.0340965757581590 0.0
1.3121922069296710 -0.0464584984975624 0.0
1.5782300750761258 -0.2295875463898444 0.0
1.5779136900487922 -0.2288742400046750 0.0
1.1557417533469501 -0.0544933659371164 0.0
1.1801641898147954 0.0586551865117913 0.0
1.1432489418662417 -0.0574732304154652 0.0
1.1885848217896502 0.0473197736401318 0.0
1.4287370005107267 0.0325234670046350 0.0
1.4397365811532670 -0.0300193623179184 0.0
1.2951071920159549 -0.1607602980862753 0.0
1.2810490446888727 0.1935916409608066 0.0
1.1905668123433937 0.0497691426225613 0.0
1.1385061956012696 -0.0051736953513564 0.0
1.1867348647539211 -0.0375699219443791 0.0
1.1539479534735921 0.0307337228259911 0.0
1.2894265877250743 0.0085724368197871 0.0
1.2967684230226058 -0.0147234356494598 0.0
1.1558324881623738 0.0378463539978885 0.0
1.2187596372073668 -0.0663766963716555 0.0
1.1579480933745183 0.0410618473732466 0.0
1.2163471580985792 -0.0648566759684049 0.0
1.1690956340276997 0.0696020034444566 0.0
1.1452708613153235 -0.0396746604311663 0.0
1.0988683858849531 -0.0578492381895568 0.0
1.2058665207343571 0.0510106397521515 0.0
1.1028255230913919 -0.0234634864291167 0.0
1.0963352903455648 0.0190425841827269 0.0
1.6136183405538351 0.0084525279079142 0.0
1.6160713418518098 -0.0003058398369190 0.0
1.4886888879141058 0.0318455962638956 0.0
1.5092717296501241 -0.0679755829663390 0.0
0.4729836272550711 -0.0141574740471912 0.0
0.4547057447416519 -0.0161344619495591 0.0
0.5709453345270398 0.1070122943711307 0.0
0.5904495731032785 0.1061468015180331 0.0
1.4646786173135782 0.4476105574032512 0.0
1.4599671245094641 0.4442592761689792 0.0
1.5446339019313238 -0.3603459763668309 0.0
1.5467522075863327 -0.3619684808051561 0.0
0.9907651943937100 0.0342989278098721 0.0
0.9914940057090286 0.0447007938791728 0.0
1.6126871523419082 0.0321099903360015 0.0
1.6047942122297396 -0.0436935746021622 0.0
1.1586491985907539 0.1959232586789834 0.0
1.1963119427580797 -0.2744954998390485 0.0
1.5317464394309923 -0.0543828936639689 0.0
1.5054219259981145 0.0105833740533264 0.0
0.7367858514728108 -0.0068814776710555 0.0
0.7585937430423496 0.0054469628191133 0.0
0.8940846744154129 -0.0167572881338579 0.0
0.9105784375323620 -0.0198456772916168 0.0
0.9259407444433632 0.0047285830870300 0.0
0.9117784270273498 0.0044304552080726 0.0
1.5784893762503620 -0.0264072914443300 0.0
1.5784853051990249 -0.0563941765266414 0.0
0.6645578633307059 -0.0836779508121545 0.0
0.6624848798634052 -0.0844804507346407 0.0
0.7119573173194237 0.0640544243325376 0.0
0.7102520968108573 0.0628661639257512 0.0
1.4963408070841584 0.0492684558324611 0.0
1.4969257646546432 0.0321573807807786 0.0
0.8993017082057801 -0.1253469661662169 0.0
0.8998658922370371 -0.1286286570709234 0.0
1.3577922654459722 0.0009138401519210 0.0
1.2764946360294789 0.0144950725073663 0.0
1.0038421445162768 -0.0946674275034864 0.0
1.0041978392786628 -0.0944902371629406 0.0
1.5172789646882090 -0.0273040505943727 0.0
1.5219159080056244 -0.0297628335935135 0.0
1.4868366625932077 0.0376028188438515 0.0
1.4898951411249126 0.0447638866258702 0.0
0.7499218925199865 -0.0083144581664339 0.0
0.7537049331474628 -0.0067309391773160 0.0
0.7043168092557808 0.0217268006539536 0.0
0.6936717856862870 0.0196098894784186 0.0
0.8169722260918544 0.0369531155539572 0.0
0.8405678169398895 -0.0645781096083849 0.0
0.7456707643476562 0.0907780268945391 0.0
0.7483364077413287 0.0878176075297102 0.0
1.5783015424857887 -0.0106072275645653 0.0
1.5883156946892403 0.0054812315857509 0.0
1.5935827616594151 -0.0078897949033697 0.0
1.5945794503859338 -0.0060438457148782 0.0
0.7019504536711345 -0.0033447286549555 0.0
0.7264946302548357 0.0264771621879219 0.0
0.7062521194624171 -0.0128983097338046 0.0
0.7051968676275765 0.0191824456270874 0.0
1.6269777054842551 -0.0024156554974160 0.0
1.6301034898174966 -0.0438689850457898 0.0
1.5213631092763982 -0.0096064814000837 0.0
1.5228160495038718 -0.0136104204920525 0.0
0.7147751745511333 -0.0106675666418727 0.0
0.6381469149526793 0.0177575727677641 0.0
0.6510115449823275 -0.0199861002769408 0.0
0.6960880812150942 0.0087196918515881 0.0
0.8047539058128161 0.0298469374750836 0.0
0.7785895407162884 -0.0222901879383465 0.0
0.8089196492071183 0.0208905807681697 0.0
0.7930931460765663 -0.0274932963676121 0.0
1.4136278796066473 -0.0103417992023855 0.0
1.4384741116454756 0.0015291331974132 0.0
1.4164258632639026 -0.0011218703832711 0.0
1.4390158019858033 0.0084240787703159 0.0
1.5793465136565326 0.0011137833601840 0.0
1.5674255121200091 -0.0108256683407661 0.0
1.3117979058761076 0.0071628458959485 0.0
1.3571939297754394 -0.0275355000556096 0.0
1.4084829827342134 0.0023944652011573 0.0
1.4165939437686246 -0.0139420100121726 0.0
0.7207446879040658 -0.0170282104378745 0.0
0.6702279012598377 0.0188183727032337 0.0
0.7226501714508123 -0.0183062081455324 0.0
0.6715329931219419 0.0204841519402866 0.0
0.5567264811371885 -0.1175032083846047 0.0
0.5610947418633679 -0.1122352981603342 0.0
1.2859982266076637 0.1191413662938195 0.0
1.2852006104121201 0.1167849311723150 0.0
1.4216419001409972 -0.0164789099703179 0.0
1.3839200691926847 -0.0409505378463139 0.0
1.3873886373424333 0.0222159014783718 0.0
1.4232291250542217 -0.0031406602707278 0.0
0.7984965745109888 -0.0653958902322217 0.0
0.7977387322494428 0.0751318854694281 0.0
1.1240489356533285 -0.1581583218244841 0.0
1.1249481746554595 -0.1549970789712431 0.0
1.1266745366754543 0.2245830934365237 0.0
1.1219088089032903 0.2254761009455291 0.0
0.8466139495068327 -0.0428919295746366 0.0
0.8064433825702537 0.0488232451452062 0.0
0.8424575129987200 -0.0381813000806381 0.0
0.8119820145496456 0.0556202074409122 0.0
1.5546333081464176 -0.0100553600061204 0.0
1.5551435365822026 -0.0200386645091776 0.0
0.6851675124399529 -0.0211732607063123 0.0
0.7026956205587689 0.0035433373538983 0.0
0.6461256978030709 0.0250085876003687 0.0
0.7320050832393203 0.0423438096426732 0.0
0.6602214103974331 0.0020023490169808 0.0
0.6653302513613241 -0.0025241387612962 0.0
1.4084493300125898 -0.2116750785455968 0.0
1.4058713296655307 -0.2025076633610877 0.0
1.2677270408372736 0.2635362041615391 0.0
1.2688092643177888 0.2465950131554117 0.0
0.4758085325762830 -0.0511650271784571 0.0
0.4844515952078363 -0.0504594019980440 0.0
0.4817295467415205 0.0525458636314321 0.0
0.4908045520977995 0.0508593655566970 0.0
1.4015649622897006 -0.0057012127874561 0.0
1.4041485340086257 -0.0032025607514944 0.0
1.4296403736480505 -0.1606267706074993 0.0
1.4457553337670865 -0.1594709225587758 0.0
1.4477736061215090 0.1782892851753897 0.0
1.4278862588812358 0.1742673163089119 0.0
0.8530544711955206 0.0395210958114924 0.0
0.7432576301310988 -0.1088320218044257 0.0
0.8382335151224000 0.0514169860406584 0.0
0.7625396344463854 -0.0921590549170827 0.0
1.3977567423048369 -0.0448824557237789 0.0
1.3692945600524584 0.0515453027920035 0.0
1.3930138266129206 -0.0368901103783320 0.0
1.3723546093992780 0.0606074199082526 0.0
1.5104265387276288 0.0018519018456997 0.0
1.5090259865284754 -0.0311844340570498 0.0
0.6468192044559382 0.0022576178358068 0.0
0.6492322024238796 0.0043164043163115 0.0
1.3903238539079017 0.0803513973087653 0.0
1.4034522605581445 0.0528600106303839 0.0
1.5196359660840313 -0.0422730717939520 0.0
1.4950789101514512 0.0461281192624164 0.0
0.6986537267664112 0.0926722113985941 0.0
0.6856624306977662 0.1004944541507762 0.0
1.4631912226222648 -0.0289150522500249 0.0
1.4141522650598877 0.0354206142505687 0.0
1.4132543168438496 -0.0492802338307369 0.0
1.4630883291306294 0.0044124988503809 0.0
1.6339404865741820 0.0202074435747912 0.0
1.6472650878831758 -0.0273839131750368 0.0
0.5027877560020803 0.0000507179765089 0.0
0.5007624607031560 0.0019559538703031 0.0
1.5292836675338675 -0.0326696338521549 0.0
1.5260027987860856 0.0321207366269123 0.0
0.9373923248668319 0.2269648880950020 0.0
0.9059430631439204 -0.2232204960063515 0.0
1.5162220992168272 -0.0159814371306585 0.0
1.5126085730203465 -0.0061406354231317 0.0
1.3087593997851195 0.0042283565859914 0.0
1.3536505085170414 -0.0286546611665791 0.0
1.3232971550424699 -0.0185907456456583 0.0
1.3281801451663489 -0.0167679139933084 0.0
1.2052583698105170 -0.1206285077089319 0.0
1.2053154822497847 -0.1205785932276913 0.0
1.4971875144921123 -0.0155881885060205 0.0
1.4468709965381417 -0.0045107529536357 0.0
1.4527025303309213 -0.0305784411636399 0.0
1.4408117196706280 0.0319196695218213 0.0
1.5046441229993388 -0.0217594197455311 0.0
1.4525987008808143 0.0017830948193333 0.0
0.4286641183676670 0.0470989310149413 0.0
0.4313525855628227 0.0439973405438279 0.0
0.4243881355475468 -0.0309999866015740 0.0
0.4172471566028089 -0.0341192695445072 0.0
1.4353111220462971 -0.3320731594043482 0.0
1.4365237087788625 -0.3353777707230940 0.0
0.3968128502988694 0.0067336099595526 0.0
0.4059839216604997 -0.0109587489073344 0.0
1.5114804941790787 0.3286794750053975 0.0
1.5128598667559452 0.3231717251562338 0.0
0.5928871088845257 0.0991303807777404 0.0
0.5936996794331032 0.0979836737104751 0.0
1.5182268745615344 0.0238846631059330 0.0
1.5219869162074455 -0.0231013679427598 0.0
1.3284298854268834 -0.0151241844475413 0.0
1.3427812807464368 0.0131896745789218 0.0
1.4607920616735650 -0.3807601672030668 0.0
1.4563463210075400 -0.3761081400117618 0.0
1.3988664606643204 0.4876427909677988 0.0
1.4085835674504497 0.4851789701316974 0.0
1.5912202081397888 0.0107881470932255 0.0
1.5883743020410053 0.0124704762942574 0.0
0.4854987980448668 0.0541712434666830 0.0
0.4638553531950768 -0.0607168181647035 0.0
0.4781855371264087 0.0583603266014717 0.0
0.4742078113307599 -0.0568948312818924 0.0
0.3834144044050223 0.0283073677648907 0.0
0.4050646972677435 0.0284432062259495 0.0
0.4176658959940527 -0.0153517298639854 0.0
0.4402955850451974 -0.0166196559405771 0.0
1.2512597611025986 -0.2058011516310447 0.0
1.2689805148882525 -0.2077431906439588 0.0
1.2780232729624543 0.2819691378449738 0.0
1.2612851880682006 0.2803229638540852 0.0
1.2073790015718071 -0.2717124797868928 0.0
1.1809292068303774 0.2659586707275525 0.0
1.4518133733032386 0.0021586967950250 0.0
1.4588438342013950 0.0163318220025100 0.0
0.5094244641387766 -0.0093538016588362 0.0
0.4836846955027533 -0.0005573707382936 0.0
0.5204642411494109 0.0144588149067360 0.0
0.4979712159103394 0.0044860747760908 0.0
1.4871321974087701 -0.0225192112280912 0.0
1.4746718883775223 0.0049227447602890 0.0
1.3350290466289318 -0.0265349946030919 0.0
1.3354154784950845 -0.0235357644474109 0.0
0.8719222837534533 0.2643778027088084 0.0
0.9351778056057957 -0.2433836660092837 0.0
1.0394191424126304 0.0736964971262317 0.0
1.0466818063244354 0.0796938312762851 0.0
1.0564689646286540 -0.0965767283438635 0.0
1.0580270352200327 -0.0992216764425231 0.0
0.6354212740790277 -0.1341522699025723 0.0
0.6495989104850002 0.1423208205026462 0.0
0.2850853852531975 -0.0241094242537599 0.0
0.2883653869772617 -0.0234730948046100 0.0
0.2946197772373965 -0.0107431515816674 0.0
0.2931796399948050 -0.0107278028383935 0.0
0.3558500230938708 -0.0116087924596015 0.0
0.3554782238840034 0.0117767409284988 0.0
1.2240597573556744 0.3285823994612243 0.0
1.1734754358401087 -0.2645139033587497 0.0
0.5059351114219246 -0.0602572534638812 0.0
0.4942334752892142 0.0720590217898426 0.0
0.5055154218015957 -0.0594865925278642 0.0
0.4951128475354729 0.0738950243417195 0.0
1.4849164587440142 0.0479581120519589 0.0
1.4960260197970836 -0.0609696755520764 0.0
0.4520101746624869 0.0758291588967678 0.0
0.5224877058021039 -0.1242626920365505 0.0
0.9604437420842860 0.0634569413731612 0.0
0.9568023788944748 0.0617490945817672 0.0
0.9850109734046236 -0.0604101030589516 0.0
0.9857587741086870 -0.0606019473021620 0.0
0.8775093982130572 0.0302926924810011 0.0
0.8780399261173741 0.0393971032973256 0.0
0.5326794796792896 0.0441371861742602 0.0
0.5070591332591513 -0.0573613164495817 0.0
0.5299449997400677 0.0426272045820296 0.0
0.5056102292676218 -0.0576515137954035 0.0
1.5446792680721921 -0.0061864135039255 0.0
1.5404819523511426 -0.0033817511949110 0.0
0.4241068453363694 -0.0721056269945599 0.0
0.4744594033233846 0.0498513861138005 0.0
0.4587033753931459 0.0611444771790779 0.0
0.4444571171237153 -0.0607875976380172 0.0
1.0089636442316947 0.0406803138862590 0.0
1.0455245278652521 0.0424028291969190 0.0
1.0766618195825484 -0.0561020713316173 0.0
1.0506397495705586 -0.0600547252341418 0.0
1.3119642038070229 0.0206175835832387 0.0
1.3099599137869062 0.0276528108982401 0.0
1.3544346296340848 -0.0674760994091903 0.0
1.3690927569246389 -0.0393894076334182 0.0
1.0561692581535498 -0.1246502774000688 0.0
1.0507397153254823 -0.1316185323724327 0.0
0.5284053850231671 -0.0014144661488271 0.0
0.5301875137116717 0.0080518730961160 0.0
0.5362923755791514 0.0041438362147215 0.0
0.5199154233298084 -0.0061695870951057 0.0