# vtk DataFile Version 3.0
LucasCarvalhoTCC Results
ASCII

DATASET POLYDATA
FIELD FieldData 1
TIME 1 1 double
1.8

POINTS 494 float
0.0 0.0 0.0
8.0 0.0 0.0
8.0 1.0 0.0
0.0 1.0 0.0
4.0 0.0 0.0
4.0 1.0 0.0
4.0 0.35 0.0
4.0 0.65 0.0
0.2010296266416496 1.0 0.0
0.3986915135488555 1.0 0.0
0.5930420631591132 1.0 0.0
0.7841367769318693 1.0 0.0
0.9720301907499852 1.0 0.0
1.156775924166146 1.0 0.0
1.33842670621592 1.0 0.0
1.517034389070868 1.0 0.0
1.69264994674003 1.0 0.0
1.865323550794866 1.0 0.0
2.035104414722059 1.0 0.0
2.202040983487818 1.0 0.0
2.366180993436638 1.0 0.0
2.527571282866703 1.0 0.0
2.686257831390245 1.0 0.0
2.842286022819771 1.0 0.0
2.995700353514032 1.0 0.0
3.146544637914273 1.0 0.0
3.294861880721452 1.0 0.0
3.440694398353104 1.0 0.0
3.58408394609007 1.0 0.0
3.725071294102791 1.0 0.0
3.863696788294668 1.0 0.0
4.136303211705004 1.0 0.0
4.274928705896546 1.0 0.0
4.415916053908917 1.0 0.0
4.55930560164552 1.0 0.0
4.7051381192768 1.0 0.0
4.853455362083593 1.0 0.0
5.004299646483437 1.0 0.0
5.157713977177285 1.0 0.0
5.313742168606385 1.0 0.0
5.472428717129489 1.0 0.0
5.6338190065591 1.0 0.0
5.797959016507455 1.0 0.0
5.96489558527273 1.0 0.0
6.134676449200184 1.0 0.0
6.307350053255487 1.0 0.0
6.482965610925135 1.0 0.0
6.661573293780584 1.0 0.0
6.843224075830887 1.0 0.0
7.027969809247587 1.0 0.0
7.215863223066262 1.0 0.0
7.4069579368396 1.0 0.0
7.601308486450315 1.0 0.0
7.798970373357896 1.0 0.0
8.0 0.7999999999999996 0.0
8.0 0.6000000000013874 0.0
8.0 0.4000000000016649 0.0
8.0 0.2000000000008324 0.0
7.798970373357898 0.0 0.0
7.601308486450317 0.0 0.0
7.406957936839601 0.0 0.0
7.215863223066265 0.0 0.0
7.02796980924759 0.0 0.0
6.843224075830888 0.0 0.0
6.661573293780592 0.0 0.0
6.482965610925139 0.0 0.0
6.307350053255492 0.0 0.0
6.134676449200188 0.0 0.0
5.964895585272735 0.0 0.0
5.797959016507459 0.0 0.0
5.633819006559103 0.0 0.0
5.472428717129493 0.0 0.0
5.313742168606389 0.0 0.0
5.157713977177288 0.0 0.0
5.004299646483441 0.0 0.0
4.853455362083597 0.0 0.0
4.705138119276803 0.0 0.0
4.559305601645523 0.0 0.0
4.415916053908919 0.0 0.0
4.274928705896549 0.0 0.0
4.136303211705007 0.0 0.0
3.863696788294383 0.0 0.0
3.725071294102209 0.0 0.0
3.584083946089184 0.0 0.0
3.440694398352564 0.0 0.0
3.29486188072223 0.0 0.0
3.146544637916415 0.0 0.0
2.995700353517581 0.0 0.0
2.842286022824779 0.0 0.0
2.68625783139676 0.0 0.0
2.527571282874774 0.0 0.0
2.366180993446318 0.0 0.0
2.202040983499156 0.0 0.0
2.035104414735112 0.0 0.0
1.865323550807426 0.0 0.0
1.692649946751479 0.0 0.0
1.517034389081164 0.0 0.0
1.338426706225015 0.0 0.0
1.156775924174005 0.0 0.0
0.9720301907565596 0.0 0.0
0.784136776937109 0.0 0.0
0.5930420631629705 0.0 0.0
0.3986915135514271 0.0 0.0
0.2010296266429896 0.0 0.0
0.0 0.199999999999558 0.0
0.0 0.3999999999989746 0.0
0.0 0.5999999999989464 0.0
0.0 0.7999999999994731 0.0
4.065082561150232 0.3648546699507293 0.0
4.117274722996153 0.4064765305061043 0.0
4.146239186965635 0.4666218605127571 0.0
4.146239186588658 0.5333781411388893 0.0
4.117274722147235 0.5935234705584039 0.0
4.065082560620447 0.6351453303044018 0.0
3.934917439190226 0.6351453302132268 0.0
3.882725277520537 0.5935234701418048 0.0
3.853760813071839 0.5333781396514286 0.0
3.853760813263242 0.4666218595099774 0.0
3.882725277782338 0.4064765295299076 0.0
3.934917439246251 0.3648546697597932 0.0
3.348071016817302 0.5037366844559412 0.0
4.65817771841185 0.4813089492125461 0.0
5.148432135339639 0.5000000000000013 0.0
2.851567863014233 0.5000000000000465 0.0
4.406326506211093 0.3072680842959042 0.0
3.575604791543614 0.6706702532911111 0.0
4.424395205595821 0.6706702556565258 0.0
3.593673497058965 0.3072680820819204 0.0
5.648652107845511 0.5000000000000006 0.0
2.351347890458042 0.4999999999998563 0.0
1.851146954963573 0.4999999999998219 0.0
6.148853043290459 0.4999999999999989 0.0
6.65089532386231 0.5241211434250735 0.0
1.349104674975677 0.4758788558671475 0.0
7.150713697794147 0.4858064203922342 0.0
0.8492863006035025 0.4858064203396458 0.0
4.216343713145164 0.2287135668575249 0.0
3.7836562881134 0.7712864338025908 0.0
4.346988371127422 0.5000000019594898 0.0
4.213775907987267 0.7756803165215952 0.0
3.653011628408684 0.4999999990051173 0.0
3.786224091202296 0.224319683220954 0.0
7.572712389010231 0.5763628491757339 0.0
0.4272876103144935 0.5763628498169726 0.0
4.881741322202974 0.3185523670790996 0.0
3.118258676783759 0.6814476337404539 0.0
3.126854924363118 0.2792890251323842 0.0
4.873145074373641 0.7207109754187309 0.0
5.398381996912613 0.291094588046412 0.0
5.396092528392672 0.7230702977293901 0.0
2.603907471650227 0.7230702981371074 0.0
2.601618001742297 0.2910945873520305 0.0
4.065645388412852 0.1903894420877926 0.0
3.934354612281609 0.8096105573695707 0.0
4.268393145079946 0.6292513280674802 0.0
3.731606853978594 0.3707486723017213 0.0
4.265062587797852 0.3723525870906427 0.0
3.734937412407246 0.6276474138958879 0.0
5.89991820844496 0.720584760457478 0.0
5.899661142431216 0.2940789491313893 0.0
2.100338856207466 0.7059210507243335 0.0
2.100081790085733 0.2794152396968363 0.0
4.648216390708278 0.2460745758417431 0.0
3.350865525112209 0.7519279174007294 0.0
3.351783614314077 0.2460745727859678 0.0
4.649134469923633 0.7519279206208029 0.0
6.386000070083336 0.2800687217561524 0.0
6.399946740387701 0.7091877900019353 0.0
1.613999929083956 0.7199312783619409 0.0
1.600053258667474 0.2908122092889953 0.0
1.099018086220021 0.3101534564461602 0.0
1.099018086220183 0.6898465435530818 0.0
6.900981912171285 0.3101534566801202 0.0
6.900981912171287 0.689846543319878 0.0
3.934891793257755 0.2336799984692873 0.0
4.065108206439434 0.7663200008196746 0.0
5.133077706310633 0.254681732561614 0.0
5.131620328745691 0.7509194919064351 0.0
2.866922291796803 0.7453182673725732 0.0
2.868379670398546 0.2490805081265555 0.0
0.5973224633027379 0.3123440263675117 0.0
7.402677535116692 0.3123440263206204 0.0
7.70928508668797 0.2984218335093966 0.0
0.2907149122204558 0.2984218350042115 0.0
2.359042531710287 0.2526358364218651 0.0
2.362552667743482 0.7498876177132479 0.0
5.640957467742433 0.2526358368965552 0.0
5.637447332034727 0.7498876177447886 0.0
7.330771635020911 0.7204300868765696 0.0
0.6692283641678903 0.7204300870263377 0.0
6.141991504218947 0.7500064293114952 0.0
6.143214654121697 0.2541610692540839 0.0
1.858008494097047 0.2499935706645152 0.0
1.856785344746094 0.7458389307817799 0.0
1.360037479834015 0.7503851535261052 0.0
1.363297687800482 0.2332108063209677 0.0
6.636702311691573 0.7667891933666813 0.0
6.639962519949044 0.2496148464378299 0.0
7.14328150074831 0.2292696686424185 0.0
0.8567184978980538 0.2292696684503961 0.0
4.845173759433459 0.5000000012080886 0.0
3.15482623877425 0.4999999993865263 0.0
3.514470413944982 0.5755907957035395 0.0
4.485529584365944 0.5755907996488695 0.0
4.350214515329574 0.8947484376274254 0.0
3.64978548377064 0.1052515623441257 0.0
4.356280753270322 0.1397878825788729 0.0
3.643719248073251 0.8602121180766233 0.0
4.157657982820168 0.3023031440803671 0.0
3.842342017851872 0.6976968563131654 0.0
4.149794964153143 0.6947625877680722 0.0
3.850205035403508 0.3052374120341299 0.0
4.252863769441745 0.5000000013253333 0.0
3.747136230269581 0.4999999993774377 0.0
2.66150837620265 0.4835883053501762 0.0
5.338491622258749 0.4835883052760253 0.0
7.732076714471282 0.7613785341653052 0.0
0.267923285219987 0.7613785345749642 0.0
3.482582425594127 0.3988584940714734 0.0
4.517417574829351 0.3988584973195787 0.0
7.120961454429095 0.7969630876933931 0.0
0.8790385446795201 0.7969630878928393 0.0
4.524178509919695 0.1937066442020419 0.0
3.472973035782958 0.803602443762734 0.0
4.527026959328886 0.8036024455277256 0.0
3.475821495314308 0.1937066425220846 0.0
5.834485749168302 0.4775259269822466 0.0
2.16551424934095 0.5224740729963462 0.0
4.803832126993392 0.8343163881584211 0.0
3.196167871756218 0.1656836120733276 0.0
3.196167870279283 0.834316388182051 0.0
4.803832130306974 0.1656836112805605 0.0
1.646902821176459 0.5088844228822333 0.0
6.35309717778631 0.4911155766888507 0.0
4.128745436683365 0.8608937921704661 0.0
3.871254562700506 0.1391062074145501 0.0
7.783519314041498 0.4824599318584197 0.0
0.2164806854160975 0.4824599323519634 0.0
3.981228286637499 0.1341601386487245 0.0
4.018771713398118 0.8658398609794804 0.0
4.757705393330306 0.6277793253200102 0.0
3.245404476813698 0.3720431195654205 0.0
3.262406961538709 0.609092082228193 0.0
4.738552632749474 0.3854106153034425 0.0
4.980576921401999 0.1828043249223437 0.0
3.019423077460087 0.8171956749482756 0.0
4.975386875116307 0.8288560892267683 0.0
3.024613123995747 0.1711439108946455 0.0
7.537862127958827 0.7914398748884439 0.0
0.46213787149577 0.7914398749623154 0.0
4.150965283491015 0.1232311208167031 0.0
3.849034718225983 0.8767688792466098 0.0
0.6330166515036239 0.5212993800799176 0.0
7.366983347335347 0.5212993798709434 0.0
5.001451172914062 0.4591396125040952 0.0
2.998548825585332 0.5408603877155073 0.0
5.250532135494552 0.1623854812497458 0.0
5.24999687257574 0.8404382486850067 0.0
2.749794930508214 0.8396380739052673 0.0
2.749676059914328 0.161585306286623 0.0
1.150631951549359 0.5017906253149568 0.0
6.85747267660715 0.5137706215776152 0.0
2.938770240933895 0.3859183074771494 0.0
5.061229757952985 0.6140816927005173 0.0
5.521883200863776 0.8371838481144578 0.0
5.520780843451154 0.1567733764659754 0.0
2.479219155991939 0.1567733759623464 0.0
2.478116798894765 0.8371838481096507 0.0
2.208224060227917 0.1725929992863016 0.0
2.214655190115911 0.821187355218689 0.0
5.791775938918927 0.8274070011383262 0.0
5.785558009721889 0.1789659155514431 0.0
5.243140500145841 0.3651007420679131 0.0
5.247758683472709 0.6318228659349833 0.0
2.748336099792684 0.6332079670712092 0.0
2.766145970608876 0.3583112578457802 0.0
2.500794992947401 0.4517155340697119 0.0
5.499205006433885 0.4517155344186723 0.0
3.472119223331378 0.69283875816516 0.0
4.527880773131323 0.6928387614752662 0.0
2.445947440949104 0.6396216022327238 0.0
5.554052558509333 0.6396216019605415 0.0
1.976669571201813 0.1631348676957265 0.0
[...]
POINT_DATA 494

VECTORS Velocity float
0.0000000000000000 0.0000000000000000 0.0
0.8199355908767462 -0.1380541152384120 0.0
0.0000000000000000 0.0000000000000000 0.0
0.0000000000000000 0.0000000000000000 0.0
0.0000000000000000 0.0000000000000000 0.0
0.0000000000000000 0.0000000000000000 0.0
0.0000000000000000 0.0000000000000000 0.0
0.0000000000000000 0.0000000000000000 0.0
0.0000000000000000 0.0000000000000000 0.0
0.0000000000000000 0.0000000000000000 0.0
0.0000000000000000 0.0000000000000000 0.0
0.0000000000000000 0.0000000000000000 0.0
0.0000000000000000 0.0000000000000000 0.0
0.0000000000000000 0.0000000000000000 0.0
0.0000000000000000 0.0000000000000000 0.0
0.0000000000000000 0.0000000000000000 0.0
0.0000000000000000 0.0000000000000000 0.0
0.0000000000000000 0.0000000000000000 0.0
0.0000000000000000 0.0000000000000000 0.0
0.0000000000000000 0.0000000000000000 0.0
0.0000000000000000 0.0000000000000000 0.0
0.0000000000000000 0.0000000000000000 0.0
0.0000000000000000 0.0000000000000000 0.0
0.0000000000000000 0.0000000000000000 0.0
0.0000000000000000 0.0000000000000000 0.0
0.0000000000000000 0.0000000000000000 0.0
0.0000000000000000 0.0000000000000000 0.0
0.0000000000000000 0.0000000000000000 0.0
0.0000000000000000 0.0000000000000000 0.0
0.0000000000000000 0.0000000000000000 0.0
0.0000000000000000 0.0000000000000000 0.0
0.0000000000000000 0.0000000000000000 0.0
0.0000000000000000 0.0000000000000000 0.0
0.0000000000000000 0.0000000000000000 0.0
0.0000000000000000 0.0000000000000000 0.0
0.0000000000000000 0.0000000000000000 0.0
0.0000000000000000 0.0000000000000000 0.0
0.0000000000000000 0.0000000000000000 0.0
0.0000000000000000 0.0000000000000000 0.0
0.0000000000000000 0.0000000000000000 0.0
0.0000000000000000 0.0000000000000000 0.0
0.0000000000000000 0.0000000000000000 0.0
0.0000000000000000 0.0000000000000000 0.0
0.0000000000000000 0.0000000000000000 0.0
0.0000000000000000 0.0000000000000000 0.0
0.0000000000000000 0.0000000000000000 0.0
0.0000000000000000 0.0000000000000000 0.0
0.0000000000000000 0.0000000000000000 0.0
0.0000000000000000 0.0000000000000000 0.0
0.0000000000000000 0.0000000000000000 0.0
0.0000000000000000 0.0000000000000000 0.0
0.0000000000000000 0.0000000000000000 0.0
0.0000000000000000 0.0000000000000000 0.0
0.0000000000000000 0.0000000000000000 0.0
1.0773247426890509 0.5422735383854591 0.0
0.9956057573344412 0.1347391111451011 0.0
0.9604591310658257 -0.0899732558183605 0.0
1.0634320866660294 -0.4540963484684020 0.0
0.0000000000000000 0.0000000000000000 0.0
0.0000000000000000 0.0000000000000000 0.0
0.0000000000000000 0.0000000000000000 0.0
0.0000000000000000 0.0000000000000000 0.0
0.0000000000000000 0.0000000000000000 0.0
0.0000000000000000 0.0000000000000000 0.0
0.0000000000000000 0.0000000000000000 0.0
0.0000000000000000 0.0000000000000000 0.0
0.0000000000000000 0.0000000000000000 0.0
0.0000000000000000 0.0000000000000000 0.0
0.0000000000000000 0.0000000000000000 0.0
0.0000000000000000 0.0000000000000000 0.0
0.0000000000000000 0.0000000000000000 0.0
0.0000000000000000 0.0000000000000000 0.0
0.0000000000000000 0.0000000000000000 0.0
0.0000000000000000 0.0000000000000000 0.0
0.0000000000000000 0.0000000000000000 0.0
0.0000000000000000 0.0000000000000000 0.0
0.0000000000000000 0.0000000000000000 0.0
0.0000000000000000 0.0000000000000000 0.0
0.0000000000000000 0.0000000000000000 0.0
0.0000000000000000 0.0000000000000000 0.0
0.0000000000000000 0.0000000000000000 0.0
0.0000000000000000 0.0000000000000000 0.0
0.0000000000000000 0.0000000000000000 0.0
0.0000000000000000 0.0000000000000000 0.0
0.0000000000000000 0.0000000000000000 0.0
0.0000000000000000 0.0000000000000000 0.0
0.0000000000000000 0.0000000000000000 0.0
0.0000000000000000 0.0000000000000000 0.0
0.0000000000000000 0.0000000000000000 0.0
0.0000000000000000 0.0000000000000000 0.0
0.0000000000000000 0.0000000000000000 0.0
0.0000000000000000 0.0000000000000000 0.0
0.0000000000000000 0.0000000000000000 0.0
0.0000000000000000 0.0000000000000000 0.0
0.0000000000000000 0.0000000000000000 0.0
0.0000000000000000 0.0000000000000000 0.0
0.0000000000000000 0.0000000000000000 0.0
0.0000000000000000 0.0000000000000000 0.0
0.0000000000000000 0.0000000000000000 0.0
0.0000000000000000 0.0000000000000000 0.0
0.0000000000000000 0.0000000000000000 0.0
0.0000000000000000 0.0000000000000000 0.0
0.0000000000000000 0.0000000000000000 0.0
0.0000000000000000 0.0000000000000000 0.0
1.0000000000000000 0.0000000000000000 0.0
1.0000000000000000 0.0000000000000000 0.0
1.0000000000000000 0.0000000000000000 0.0
1.0000000000000000 0.0000000000000000 0.0
0.0000000000000000 0.0000000000000000 0.0
0.0000000000000000 0.0000000000000000 0.0
0.0000000000000000 0.0000000000000000 0.0
0.0000000000000000 0.0000000000000000 0.0
0.0000000000000000 0.0000000000000000 0.0
0.0000000000000000 0.0000000000000000 0.0
0.0000000000000000 0.0000000000000000 0.0
0.0000000000000000 0.0000000000000000 0.0
0.0000000000000000 0.0000000000000000 0.0
0.0000000000000000 0.0000000000000000 0.0
0.0000000000000000 0.0000000000000000 0.0
0.0000000000000000 0.0000000000000000 0.0
1.5349583411140166 -0.0024845395833187 0.0
1.5379073170943105 0.0170140492143753 0.0
1.6149239593883338 -0.0095354252305872 0.0
1.6124563571580746 -0.0206801933048637 0.0
1.3574609147888046 0.0625366202186754 0.0
1.3721118651450024 0.0535750563636182 0.0
1.3988821242321656 -0.1021092645279050 0.0
1.3838883566694666 -0.1152300768138597 0.0
1.5970467699267983 0.0026625004590493 0.0
1.5961268670703830 -0.0033809353473982 0.0
1.5488488558115889 0.0040926061269915 0.0
1.5477846652438569 -0.0007252473428646 0.0
1.5656613442879259 -0.0303346020974442 0.0
1.5659330209964495 0.0146474149104598 0.0
1.6483537377009883 0.0082455093801626 0.0
1.6451453706695174 -0.0155150571350564 0.0
1.3315722758155855 0.2939699220638788 0.0
1.3304975514202193 0.2896908277473321 0.0
1.3062837161068674 0.0201414235309979 0.0
1.3694926843916648 -0.2117741658742712 0.0
1.3053651026712414 0.0148555380019014 0.0
1.3708700113282761 -0.2139065849105148 0.0
1.5478328437703823 0.0156588916770183 0.0
1.5311822152117918 -0.0353862252603972 0.0
1.3393191227112478 0.0137905426478300 0.0
1.3381275098632706 0.0124437094503401 0.0
1.2766558252858007 -0.0074961593178391 0.0
1.2662020492920232 -0.0075216056215276 0.0
1.3068043110937666 -0.0041483872058804 0.0
1.2171818762420050 -0.0144486714604779 0.0
1.1928643152825067 0.0088711888388526 0.0
1.3243867305107215 0.0014134389771361 0.0
1.4607386122550883 0.1313755017283395 0.0
1.4611273996749081 0.1295872545219288 0.0
1.4083197205189186 -0.2520565538532310 0.0
1.4130756068495094 -0.2539978132261365 0.0
1.4344933440728891 0.3225556409944108 0.0
1.4287469114375582 0.3238412799449793 0.0
1.1873577335395387 -0.0298042944745925 0.0
1.3006614705467434 -0.0052442579427373 0.0
1.2916637959641089 -0.0115557997809587 0.0
1.1926765925541065 -0.0299471437124449 0.0
1.1042344804745114 -0.0522081100416695 0.0
1.1053922690025688 -0.0434118314560109 0.0
1.1215174499072227 0.0287107640845252 0.0
1.1251691003971327 0.0162536563143520 0.0
1.2539660139626672 0.0054642637049691 0.0
1.2419778768813652 -0.0187983230564321 0.0
1.2438456597963150 0.0153936593680874 0.0
1.2509791204503700 -0.0056044489205110 0.0
1.4382709338856359 -0.0271000265652238 0.0
1.3227100021901097 0.0550587927289752 0.0
1.4416335210033104 0.0300699355137082 0.0
1.3163746481037719 -0.0488074032469207 0.0
1.5809297764867674 -0.2167755672626968 0.0
1.5803498578252229 -0.2167516476841416 0.0
1.1668427030379913 -0.0466127860176181 0.0
1.1884676135655943 0.0501314715220341 0.0
1.1549911405019251 -0.0527194410092438 0.0
1.1965981914728652 0.0368611453035270 0.0
1.4298970051817950 0.0287373902366597 0.0
1.4391590673688057 -0.0263758260812542 0.0
1.2938090695702396 -0.1601159474495354 0.0
1.2814234329546581 0.1926235133899506 0.0
1.1948559502962404 0.0525211167744825 0.0
1.1478328154191448 -0.0044740940644604 0.0
1.1911991022269244 -0.0374540946792618 0.0
1.1618484330704990 0.0322402156376994 0.0
1.2893059105170761 0.0078672110758610 0.0
1.2948621227449779 -0.0139381025700854 0.0
1.1628605545925368 0.0374935333744317 0.0
1.2196704299670336 -0.0653847622635198 0.0
1.1671947081506684 0.0401957344532784 0.0
1.2149303662045248 -0.0638976490492867 0.0
1.1743015224047189 0.0685993264505702 0.0
1.1465002949791212 -0.0410554560433298 0.0
1.1083471986412976 -0.0583488782477604 0.0
1.2048047191712588 0.0517370240977959 0.0
1.1077609908752664 -0.0232598213208931 0.0
1.1033467370224554 0.0187286310818978 0.0
1.5704514291423841 0.0108045168216035 0.0
1.5714810700211874 0.0014090805573727 0.0
1.4399168710084715 0.0376648133683215 0.0
1.4487285575999083 -0.0650625777804649 0.0
0.5003244136413900 -0.0094566315621498 0.0
0.4845571778793752 -0.0106003457004127 0.0
0.5978762176545400 0.1026667231939502 0.0
0.6150245792794368 0.1022809057477854 0.0
1.4605365941995576 0.4261473670790887 0.0
1.4561664252829167 0.4239724094256209 0.0
1.5352649722132452 -0.3386502188351767 0.0
1.5370544352306690 -0.3384543529283429 0.0
0.9691933047705471 0.0241363077611897 0.0
0.9695638575827531 0.0361380429144344 0.0
1.5979696146111375 0.0281773103638189 0.0
1.5916803951353680 -0.0395801949080568 0.0
1.1611206690188829 0.1955582737458805 0.0
1.1968226531577537 -0.2739482408365849 0.0
1.4696196811968945 -0.0523023415605171 0.0
1.4571914239868027 0.0204346569784338 0.0
0.7403823224585924 -0.0083118291685659 0.0
0.7606058832165750 0.0070524777915755 0.0
0.9433265211459929 -0.0174720947599463 0.0
0.9526286533847560 -0.0208722832056685 0.0
0.9673257153505304 0.0031530351725484 0.0
0.9611381117869310 0.0025035175917508 0.0
1.5656470565125411 -0.0237588831461091 0.0
1.5649209777305633 -0.0479707231987946 0.0
0.6869501709844029 -0.0878335884630358 0.0
0.6880007071436619 -0.0891310380075520 0.0
0.7327652241730265 0.0698328041151444 0.0
0.7344418928893718 0.0688437070626757 0.0
1.4899485753758217 0.0427779134355178 0.0
1.4903379300489856 0.0321267128559670 0.0
0.9068249039349863 -0.1150921474200172 0.0
0.9077631402858578 -0.1176618156549789 0.0
1.3560492587480175 -0.0001121187143086 0.0
1.2756834344922481 0.0143126001288977 0.0
1.0030574974987942 -0.0904809014753905 0.0
1.0035564791369329 -0.0904865982363993 0.0
1.4918784713026310 -0.0358622846004033 0.0
1.4994684610707321 -0.0393486601952426 0.0
1.4568070769673640 0.0490814113274637 0.0
1.4622457242297013 0.0554820283251603 0.0
0.7690419157995719 -0.0033064592348854 0.0
0.7703625452348810 -0.0031108892735743 0.0
0.7223907779141590 0.0168811163322895 0.0
0.7138613444639362 0.0138665484619602 0.0
0.8191703758662349 0.0368646813208206 0.0
0.8411957278260245 -0.0643270638716029 0.0
0.7521552091884665 0.0830060796624808 0.0
0.7544264320437426 0.0805987638826229 0.0
1.5739779312137052 -0.0126242036083104 0.0
1.5837875680937759 0.0073839643335519 0.0
1.5649773519573427 -0.0076966459700107 0.0
1.5654147407007983 -0.0104964029125140 0.0
0.7108703455924367 -0.0008585162053199 0.0
0.7333388414151882 0.0234767579921030 0.0
0.7167324470988214 -0.0117758082513174 0.0
0.7114074237754516 0.0149439597940143 0.0
1.6193612345005757 0.0011830737085266 0.0
1.6229425733932321 -0.0465395434490913 0.0
1.5024343031642693 -0.0215017166120451 0.0
1.5023622716853995 -0.0204839400889435 0.0
0.7208293393005167 -0.0100733590658160 0.0
0.6444884860975880 0.0173332121548035 0.0
0.6550258227880931 -0.0183184438569694 0.0
0.7052258689746916 0.0090033326720232 0.0
0.8118547908673379 0.0317192671999047 0.0
0.7853331654523101 -0.0199165224902709 0.0
0.8163786399984968 0.0213875621278435 0.0
0.7982400097072687 -0.0265775467692251 0.0
1.4106364840596293 -0.0034654131062266 0.0
1.4317735203669237 -0.0020879882533439 0.0
1.4143259499455474 -0.0003702700471498 0.0
1.4307984915087801 -0.0011134243583209 0.0
1.5670156804853062 0.0048554468818077 0.0
1.5571937629008243 -0.0104606513993411 0.0
1.3198876342558941 0.0116856192823735 0.0
1.3545398182733988 -0.0328170382401728 0.0
1.4070814486402159 0.0044290456460202 0.0
1.4126948940770669 -0.0111553260754309 0.0
0.7292409393587165 -0.0174998884397454 0.0
0.6725545753328400 0.0204997155230873 0.0
0.7292141981059342 -0.0192711035762066 0.0
0.6751365942625032 0.0212524222390362 0.0
0.5739118860604093 -0.1117288659159849 0.0
0.5770413130449142 -0.1069664828530764 0.0
1.2875200269586362 0.1128338459051175 0.0
1.2865643725189542 0.1108509013467752 0.0
1.4163063709347536 -0.0114720792238292 0.0
1.3795421726421295 -0.0346257990371415 0.0
1.3840169333932124 0.0229402906967541 0.0
1.4170469968069090 -0.0006120823210060 0.0
0.7989576303046495 -0.0639805689136813 0.0
0.7992473685481757 0.0735805492518002 0.0
1.1043813659803705 -0.1407795948987709 0.0
1.1036485911342626 -0.1349068056440715 0.0
1.1138392129978607 0.1977266956269945 0.0
1.1098072287777461 0.2006405898449663 0.0
0.8483397544885881 -0.0425535810677257 0.0
0.8126566308590100 0.0494604366533103 0.0
0.8431044670237483 -0.0392764980111898 0.0
0.8188788739673963 0.0541889137412342 0.0
1.5446354728257736 -0.0102986936371522 0.0
1.5443918113205930 -0.0168152529640329 0.0
0.6870428388223895 -0.0203873287631057 0.0
0.7083038357258920 0.0038213494631367 0.0
0.6534832927911752 0.0240356456895181 0.0
0.7323280457786125 0.0414265022639734 0.0
0.6649826996176673 0.0005186858123693 0.0
0.6689624917323941 -0.0011363777341508 0.0
1.4104379985721645 -0.1872602962456437 0.0
1.4061898435170832 -0.1820189419951819 0.0
1.2887358010423091 0.2382990999109676 0.0
1.2876677123079454 0.2248331648400219 0.0
0.5078678104835415 -0.0521953784214860 0.0
0.5134273565068671 -0.0516585914343889 0.0
0.5159563770665093 0.0519688718018407 0.0
0.5215920194814762 0.0503527241633768 0.0
1.4003753008499744 -0.0068508164846083 0.0
1.4044853524131420 -0.0033969088602423 0.0
1.3834421332339990 -0.1430041480934180 0.0
1.3937166685908169 -0.1420660056471452 0.0
1.4177141568916283 0.1530198273218845 0.0
1.4033844231468120 0.1515910478899556 0.0
0.8539030303648493 0.0400294283552600 0.0
0.7510389467244224 -0.1076889950855485 0.0
0.8422147752848478 0.0494721106319033 0.0
0.7665533966469144 -0.0937333735117410 0.0
1.3928741434892056 -0.0435595022537023 0.0
1.3677447912798475 0.0497165458131481 0.0
1.3877466437201642 -0.0386316264310238 0.0
1.3716281716525824 0.0556052336934787 0.0
1.5041969066407188 -0.0033575112449308 0.0
1.5028157493083143 -0.0276791555047813 0.0
0.6500012590262337 0.0008318021291086 0.0
0.6537644174127294 0.0057076839115544 0.0
1.3878591084765033 0.0750716757407499 0.0
1.3977315032023017 0.0538508890111305 0.0
1.5172858736209267 -0.0401802832196150 0.0
1.4943194778589981 0.0439683511646267 0.0
0.7185303297290040 0.0823652303033957 0.0
0.7073730178668443 0.0889283611421873 0.0
1.4577119587183434 -0.0288214105942850 0.0
1.4138367327451418 0.0359631283619593 0.0
1.4146384974201405 -0.0507283018869746 0.0
1.4564418597502549 0.0047820520093526 0.0
1.6255007993268811 0.0136830784345519 0.0
1.6390269503227519 -0.0205957068359929 0.0
0.5072982092660805 0.0007307964869213 0.0
0.5060272480075857 0.0013188392663804 0.0
1.5240692119600430 -0.0274126719474143 0.0
1.5223771277221152 0.0271388930937905 0.0
0.9376451910187742 0.2268672718952950 0.0
0.9057026669891947 -0.2233291525967394 0.0
1.4354995125915251 -0.0139558629379165 0.0
1.4374972056450670 -0.0021199958334349 0.0
1.3222551615639258 0.0094950221122303 0.0
1.3568140958983108 -0.0343763253493861 0.0
1.3241395800845872 -0.0088801299610952 0.0
1.3263551539006417 -0.0103401227812382 0.0
1.2033006016480188 -0.1121222548684424 0.0
1.2033652004562800 -0.1125244637483158 0.0
1.4567530909213633 -0.0245269150251113 0.0
1.4145462231253012 0.0131663034181046 0.0
1.4509325589300837 -0.0282889421441915 0.0
1.4407123628920069 0.0291177939500886 0.0
1.4635762095420322 -0.0286721112135842 0.0
1.4208738629717157 0.0171316594705218 0.0
0.4392741277201785 0.0515479313178067 0.0
0.4414742731822971 0.0475821637595737 0.0
0.4344262279583216 -0.0348319463879023 0.0
0.4279396524272944 -0.0385024589244068 0.0
1.4364124503950071 -0.3108050303200914 0.0
1.4375912387886518 -0.3124479770509037 0.0
0.3992678915884573 0.0062909458087809 0.0
0.4074446244725686 -0.0103895787793845 0.0
1.5156569887078344 0.3092118394916479 0.0
1.5168174063362507 0.3050117887222620 0.0
0.5914699462061036 0.0966493272062592 0.0
0.5924114779281718 0.0957147915910168 0.0
1.5148965717466485 0.0221672578989472 0.0
1.5170037672384036 -0.0214385962664041 0.0
1.3279790084810175 -0.0160715785861341 0.0
1.3388767406580879 0.0174068323117577 0.0
1.4477999117729374 -0.3395449982888359 0.0
1.4443466143152039 -0.3394930399027233 0.0
1.3938155685225508 0.4533205124878159 0.0
1.4028345140626057 0.4481538993411093 0.0
1.5608593902899304 0.0031360475412270 0.0
1.5610357781155690 0.0014142305843281 0.0
0.4907532354490837 0.0562068957486666 0.0
0.4707238347065789 -0.0611389436637931 0.0
0.4840496905835340 0.0595340549282248 0.0
0.4798039825858514 -0.0579633971635575 0.0
0.4123343716916409 0.0261842881640469 0.0
0.4314348170906768 0.0263697723847691 0.0
0.4523573634440889 -0.0142980908644335 0.0
0.4717072029880743 -0.0156572197290464 0.0
1.2031047119499261 -0.1886590947209759 0.0
1.2177030219357035 -0.1874726868931612 0.0
1.2376942970400693 0.2506488169555058 0.0
1.2240555982142951 0.2523428304423495 0.0
1.2059859229378060 -0.2723040502692182 0.0
1.1807130374968928 0.2656366955649426 0.0
1.4425210929839407 0.0087542025673158 0.0
1.4483626809844994 0.0161992121590679 0.0
0.5145948216648758 -0.0085402255896208 0.0
0.4910299850104207 -0.0003566753314128 0.0
0.5226900490509018 0.0131331331063699 0.0
0.5020910894336112 0.0039673249069027 0.0
1.4774171328121342 -0.0157457803292526 0.0
1.4671341986097663 0.0049518900151809 0.0
1.3299454896166472 -0.0230035206494287 0.0
1.3326588375987587 -0.0221183086838660 0.0
0.8734346248652469 0.2638104597852448 0.0
0.9354388327935546 -0.2432449236760191 0.0
1.0586588958924219 0.0852823051160348 0.0
1.0613792970378197 0.0902931198805497 0.0
1.0779829342410312 -0.1105254452737000 0.0
1.0748314126639993 -0.1114152302791474 0.0
0.6353327154789276 -0.1337098650833677 0.0
0.6500365170970781 0.1417331519597563 0.0
0.3000563140316845 -0.0264492674036568 0.0
0.3020995829856098 -0.0253217470609366 0.0
0.3084750174776253 -0.0083826589891118 0.0
0.3082489283758768 -0.0081732346037973 0.0
0.3599307710540445 -0.0115516929627372 0.0
0.3602709206435767 0.0116510151190969 0.0
1.2246966157187094 0.3261266040923831 0.0
1.1735217903738988 -0.2639010933076985 0.0
0.5082805153509865 -0.0603069321369323 0.0
0.4989826473118582 0.0723325115822120 0.0
0.5061529708833800 -0.0593916514690935 0.0
0.5013817958021604 0.0740882404042967 0.0
1.4838473875081959 0.0485209725670120 0.0
1.4931571688314311 -0.0613162524555692 0.0
0.4538183651259282 0.0754546304419936 0.0
0.5230321389099394 -0.1238810007671114 0.0
0.9553935316992890 0.0514917437750425 0.0
0.9519622030334156 0.0503193134921117 0.0
0.9737642528594443 -0.0477265145395171 0.0
0.9740511046796216 -0.0470474745621265 0.0
0.8693795553463179 0.0226451517759329 0.0
0.8697482245578034 0.0326445539931043 0.0
0.5370717290233014 0.0457764844284052 0.0
0.5131180125739844 -0.0586498188127151 0.0
0.5343074714470070 0.0448389392598696 0.0
0.5124860338357146 -0.0586446873054545 0.0
1.5339384661431013 -0.0054883488362611 0.0
1.5319324384498119 -0.0021994382365903 0.0
0.4303238291894722 -0.0727302052800631 0.0
0.4759237460494227 0.0500612572305190 0.0
0.4632342991154461 0.0610866787320943 0.0
0.4469701717078777 -0.0611922710545919 0.0
1.0545605057412448 0.0280693034353576 0.0
1.0842032775288897 0.0321254443109951 0.0
1.1129583351028514 -0.0497449747540951 0.0
1.0947593245323179 -0.0514729972801181 0.0
1.3159267227140294 0.0085401872559925 0.0
1.3115975080936735 0.0173212871159648 0.0
1.3549034081795626 -0.0651911535354951 0.0
1.3652651189924840 -0.0423595555064122 0.0
1.0899974028370716 -0.1072877805087987 0.0
1.0886594262559608 -0.1115924410564494 0.0
0.5329812807409751 -0.0023146600790491 0.0
0.5323398227051940 0.0069431212271158 0.0
0.5382757358547395 0.0041936286280427 0.0
0.5254073816038105 -0.0058107686356175 0.0