# vtk DataFile Version 3.0
LucasCarvalhoTCC Results
ASCII

DATASET POLYDATA
FIELD FieldData 1
TIME 1 1 double
3.0

POINTS 494 float
0.0 0.0 0.0
8.0 0.0 0.0
8.0 1.0 0.0
0.0 1.0 0.0
4.0 0.0 0.0
4.0 1.0 0.0
4.0 0.35 0.0
4.0 0.65 0.0
0.2010296266416496 1.0 0.0
0.3986915135488555 1.0 0.0
0.5930420631591132 1.0 0.0
0.7841367769318693 1.0 0.0
0.9720301907499852 1.0 0.0
1.156775924166146 1.0 0.0
1.33842670621592 1.0 0.0
1.517034389070868 1.0 0.0
1.69264994674003 1.0 0.0
1.865323550794866 1.0 0.0
2.035104414722059 1.0 0.0
2.202040983487818 1.0 0.0
2.366180993436638 1.0 0.0
2.527571282866703 1.0 0.0
2.686257831390245 1.0 0.0
2.842286022819771 1.0 0.0
2.995700353514032 1.0 0.0
3.146544637914273 1.0 0.0
3.294861880721452 1.0 0.0
3.440694398353104 1.0 0.0
3.58408394609007 1.0 0.0
3.725071294102791 1.0 0.0
3.863696788294668 1.0 0.0
4.136303211705004 1.0 0.0
4.274928705896546 1.0 0.0
4.415916053908917 1.0 0.0
4.55930560164552 1.0 0.0
4.7051381192768 1.0 0.0
4.853455362083593 1.0 0.0
5.004299646483437 1.0 0.0
5.157713977177285 1.0 0.0
5.313742168606385 1.0 0.0
5.472428717129489 1.0 0.0
5.6338190065591 1.0 0.0
5.797959016507455 1.0 0.0
5.96489558527273 1.0 0.0
6.134676449200184 1.0 0.0
6.307350053255487 1.0 0.0
6.482965610925135 1.0 0.0
6.661573293780584 1.0 0.0
6.843224075830887 1.0 0.0
7.027969809247587 1.0 0.0
7.215863223066262 1.0 0.0
7.4069579368396 1.0 0.0
7.601308486450315 1.0 0.0
7.798970373357896 1.0 0.0
8.0 0.7999999999999996 0.0
8.0 0.6000000000013874 0.0
8.0 0.4000000000016649 0.0
8.0 0.2000000000008324 0.0
7.798970373357898 0.0 0.0
7.601308486450317 0.0 0.0
7.406957936839601 0.0 0.0
7.215863223066265 0.0 0.0
7.02796980924759 0.0 0.0
6.843224075830888 0.0 0.0
6.661573293780592 0.0 0.0
6.482965610925139 0.0 0.0
6.307350053255492 0.0 0.0
6.134676449200188 0.0 0.0
5.964895585272735 0.0 0.0
5.797959016507459 0.0 0.0
5.633819006559103 0.0 0.0
5.472428717129493 0.0 0.0
5.313742168606389 0.0 0.0
5.157713977177288 0.0 0.0
5.004299646483441 0.0 0.0
4.853455362083597 0.0 0.0
4.705138119276803 0.0 0.0
4.559305601645523 0.0 0.0
4.415916053908919 0.0 0.0
4.274928705896549 0.0 0.0
4.136303211705007 0.0 0.0
3.863696788294383 0.0 0.0
3.725071294102209 0.0 0.0
3.584083946089184 0.0 0.0
3.440694398352564 0.0 0.0
3.29486188072223 0.0 0.0
3.146544637916415 0.0 0.0
2.995700353517581 0.0 0.0
2.842286022824779 0.0 0.0
2.68625783139676 0.0 0.0
2.527571282874774 0.0 0.0
2.366180993446318 0.0 0.0
2.202040983499156 0.0 0.0
2.035104414735112 0.0 0.0
1.865323550807426 0.0 0.0
1.692649946751479 0.0 0.0
1.517034389081164 0.0 0.0
1.338426706225015 0.0 0.0
1.156775924174005 0.0 0.0
0.9720301907565596 0.0 0.0
0.784136776937109 0.0 0.0
0.5930420631629705 0.0 0.0
0.3986915135514271 0.0 0.0
0.2010296266429896 0.0 0.0
0.0 0.199999999999558 0.0
0.0 0.3999999999989746 0.0
0.0 0.5999999999989464 0.0
0.0 0.7999999999994731 0.0
4.065082561150232 0.3648546699507293 0.0
4.117274722996153 0.4064765305061043 0.0
4.146239186965635 0.4666218605127571 0.0
4.146239186588658 0.5333781411388893 0.0
4.117274722147235 0.5935234705584039 0.0
4.065082560620447 0.6351453303044018 0.0
3.934917439190226 0.6351453302132268 0.0
3.882725277520537 0.5935234701418048 0.0
3.853760813071839 0.5333781396514286 0.0
3.853760813263242 0.4666218595099774 0.0
3.882725277782338 0.4064765295299076 0.0
3.934917439246251 0.3648546697597932 0.0
3.348071016817302 0.5037366844559412 0.0
4.65817771841185 0.4813089492125461 0.0
5.148432135339639 0.5000000000000013 0.0
2.851567863014233 0.5000000000000465 0.0
4.406326506211093 0.3072680842959042 0.0
3.575604791543614 0.6706702532911111 0.0
4.424395205595821 0.6706702556565258 0.0
3.593673497058965 0.3072680820819204 0.0
5.648652107845511 0.5000000000000006 0.0
2.351347890458042 0.4999999999998563 0.0
1.851146954963573 0.4999999999998219 0.0
6.148853043290459 0.4999999999999989 0.0
6.65089532386231 0.5241211434250735 0.0
1.349104674975677 0.4758788558671475 0.0
7.150713697794147 0.4858064203922342 0.0
0.8492863006035025 0.4858064203396458 0.0
4.216343713145164 0.2287135668575249 0.0
3.7836562881134 0.7712864338025908 0.0
4.346988371127422 0.5000000019594898 0.0
4.213775907987267 0.7756803165215952 0.0
3.653011628408684 0.4999999990051173 0.0
3.786224091202296 0.224319683220954 0.0
7.572712389010231 0.5763628491757339 0.0
0.4272876103144935 0.5763628498169726 0.0
4.881741322202974 0.3185523670790996 0.0
3.118258676783759 0.6814476337404539 0.0
3.126854924363118 0.2792890251323842 0.0
4.873145074373641 0.7207109754187309 0.0
5.398381996912613 0.291094588046412 0.0
5.396092528392672 0.7230702977293901 0.0
2.603907471650227 0.7230702981371074 0.0
2.601618001742297 0.2910945873520305 0.0
4.065645388412852 0.1903894420877926 0.0
3.934354612281609 0.8096105573695707 0.0
4.268393145079946 0.6292513280674802 0.0
3.731606853978594 0.3707486723017213 0.0
4.265062587797852 0.3723525870906427 0.0
3.734937412407246 0.6276474138958879 0.0
5.89991820844496 0.720584760457478 0.0
5.899661142431216 0.2940789491313893 0.0
2.100338856207466 0.7059210507243335 0.0
2.100081790085733 0.2794152396968363 0.0
4.648216390708278 0.2460745758417431 0.0
3.350865525112209 0.7519279174007294 0.0
3.351783614314077 0.2460745727859678 0.0
4.649134469923633 0.7519279206208029 0.0
6.386000070083336 0.2800687217561524 0.0
6.399946740387701 0.7091877900019353 0.0
1.613999929083956 0.7199312783619409 0.0
1.600053258667474 0.2908122092889953 0.0
1.099018086220021 0.3101534564461602 0.0
1.099018086220183 0.6898465435530818 0.0
6.900981912171285 0.3101534566801202 0.0
6.900981912171287 0.689846543319878 0.0
3.934891793257755 0.2336799984692873 0.0
4.065108206439434 0.7663200008196746 0.0
5.133077706310633 0.254681732561614 0.0
5.131620328745691 0.7509194919064351 0.0
2.866922291796803 0.7453182673725732 0.0
2.868379670398546 0.2490805081265555 0.0
0.5973224633027379 0.3123440263675117 0.0
7.402677535116692 0.3123440263206204 0.0
7.70928508668797 0.2984218335093966 0.0
0.2907149122204558 0.2984218350042115 0.0
2.359042531710287 0.2526358364218651 0.0
2.362552667743482 0.7498876177132479 0.0
5.640957467742433 0.2526358368965552 0.0
5.637447332034727 0.7498876177447886 0.0
7.330771635020911 0.7204300868765696 0.0
0.6692283641678903 0.7204300870263377 0.0
6.141991504218947 0.7500064293114952 0.0
6.143214654121697 0.2541610692540839 0.0
1.858008494097047 0.2499935706645152 0.0
1.856785344746094 0.7458389307817799 0.0
1.360037479834015 0.7503851535261052 0.0
1.363297687800482 0.2332108063209677 0.0
6.636702311691573 0.7667891933666813 0.0
6.639962519949044 0.2496148464378299 0.0
7.14328150074831 0.2292696686424185 0.0
0.8567184978980538 0.2292696684503961 0.0
4.845173759433459 0.5000000012080886 0.0
3.15482623877425 0.4999999993865263 0.0
3.514470413944982 0.5755907957035395 0.0
4.485529584365944 0.5755907996488695 0.0
4.350214515329574 0.8947484376274254 0.0
3.64978548377064 0.1052515623441257 0.0
4.356280753270322 0.1397878825788729 0.0
3.643719248073251 0.8602121180766233 0.0
4.157657982820168 0.3023031440803671 0.0
3.842342017851872 0.6976968563131654 0.0
4.149794964153143 0.6947625877680722 0.0
3.850205035403508 0.3052374120341299 0.0
4.252863769441745 0.5000000013253333 0.0
3.747136230269581 0.4999999993774377 0.0
2.66150837620265 0.4835883053501762 0.0
5.338491622258749 0.4835883052760253 0.0
7.732076714471282 0.7613785341653052 0.0
0.267923285219987 0.7613785345749642 0.0
3.482582425594127 0.3988584940714734 0.0
4.517417574829351 0.3988584973195787 0.0
7.120961454429095 0.7969630876933931 0.0
0.8790385446795201 0.7969630878928393 0.0
4.524178509919695 0.1937066442020419 0.0
3.472973035782958 0.803602443762734 0.0
4.527026959328886 0.8036024455277256 0.0
3.475821495314308 0.1937066425220846 0.0
5.834485749168302 0.4775259269822466 0.0
2.16551424934095 0.5224740729963462 0.0
4.803832126993392 0.8343163881584211 0.0
3.196167871756218 0.1656836120733276 0.0
3.196167870279283 0.834316388182051 0.0
4.803832130306974 0.1656836112805605 0.0
1.646902821176459 0.5088844228822333 0.0
6.35309717778631 0.4911155766888507 0.0
4.128745436683365 0.8608937921704661 0.0
3.871254562700506 0.1391062074145501 0.0
7.783519314041498 0.4824599318584197 0.0
0.2164806854160975 0.4824599323519634 0.0
3.981228286637499 0.1341601386487245 0.0
4.018771713398118 0.8658398609794804 0.0
4.757705393330306 0.6277793253200102 0.0
3.245404476813698 0.3720431195654205 0.0
3.262406961538709 0.609092082228193 0.0
4.738552632749474 0.3854106153034425 0.0
4.980576921401999 0.1828043249223437 0.0
3.019423077460087 0.8171956749482756 0.0
4.975386875116307 0.8288560892267683 0.0
3.024613123995747 0.1711439108946455 0.0
7.537862127958827 0.7914398748884439 0.0
0.46213787149577 0.7914398749623154 0.0
4.150965283491015 0.1232311208167031 0.0
3.849034718225983 0.8767688792466098 0.0
0.6330166515036239 0.5212993800799176 0.0
7.366983347335347 0.5212993798709434 0.0
5.001451172914062 0.4591396125040952 0.0
2.998548825585332 0.5408603877155073 0.0
5.250532135494552 0.1623854812497458 0.0
5.24999687257574 0.8404382486850067 0.0
2.749794930508214 0.8396380739052673 0.0
2.749676059914328 0.161585306286623 0.0
1.150631951549359 0.5017906253149568 0.0
6.85747267660715 0.5137706215776152 0.0
2.938770240933895 0.3859183074771494 0.0
5.061229757952985 0.6140816927005173 0.0
5.521883200863776 0.8371838481144578 0.0
5.520780843451154 0.1567733764659754 0.0
2.479219155991939 0.1567733759623464 0.0
2.478116798894765 0.8371838481096507 0.0
2.208224060227917 0.1725929992863016 0.0
2.214655190115911 0.821187355218689 0.0
5.791775938918927 0.8274070011383262 0.0
5.785558009721889 0.1789659155514431 0.0
5.243140500145841 0.3651007420679131 0.0
5.247758683472709 0.6318228659349833 0.0
2.748336099792684 0.6332079670712092 0.0
2.766145970608876 0.3583112578457802 0.0
2.500794992947401 0.4517155340697119 0.0
5.499205006433885 0.4517155344186723 0.0
3.472119223331378 0.69283875816516 0.0
4.527880773131323 0.6928387614752662 0.0
2.445947440949104 0.6396216022327238 0.0
5.554052558509333 0.6396216019605415 0.0
1.976669571201813 0.1631348676957265 0.0
[...]
POINT_DATA 494

VECTORS Velocity float
0.0000000000000000 0.0000000000000000 0.0
0.8198868455360689 -0.1380898232538366 0.0
0.0000000000000000 0.0000000000000000 0.0
0.0000000000000000 0.0000000000000000 0.0
0.0000000000000000 0.0000000000000000 0.0
0.0000000000000000 0.0000000000000000 0.0
0.0000000000000000 0.0000000000000000 0.0
0.0000000000000000 0.0000000000000000 0.0
0.0000000000000000 0.0000000000000000 0.0
0.0000000000000000 0.0000000000000000 0.0
0.0000000000000000 0.0000000000000000 0.0
0.0000000000000000 0.0000000000000000 0.0
0.0000000000000000 0.0000000000000000 0.0
0.0000000000000000 0.0000000000000000 0.0
0.0000000000000000 0.0000000000000000 0.0
0.0000000000000000 0.0000000000000000 0.0
0.0000000000000000 0.0000000000000000 0.0
0.0000000000000000 0.0000000000000000 0.0
0.0000000000000000 0.0000000000000000 0.0
0.0000000000000000 0.0000000000000000 0.0
0.0000000000000000 0.0000000000000000 0.0
0.0000000000000000 0.0000000000000000 0.0
0.0000000000000000 0.0000000000000000 0.0
0.0000000000000000 0.0000000000000000 0.0
0.0000000000000000 0.0000000000000000 0.0
0.0000000000000000 0.0000000000000000 0.0
0.0000000000000000 0.0000000000000000 0.0
0.0000000000000000 0.0000000000000000 0.0
0.0000000000000000 0.0000000000000000 0.0
0.0000000000000000 0.0000000000000000 0.0
0.0000000000000000 0.0000000000000000 0.0
0.0000000000000000 0.0000000000000000 0.0
0.0000000000000000 0.0000000000000000 0.0
0.0000000000000000 0.0000000000000000 0.0
0.0000000000000000 0.0000000000000000 0.0
0.0000000000000000 0.0000000000000000 0.0
0.0000000000000000 0.0000000000000000 0.0
0.0000000000000000 0.0000000000000000 0.0
0.0000000000000000 0.0000000000000000 0.0
0.0000000000000000 0.0000000000000000 0.0
0.0000000000000000 0.0000000000000000 0.0
0.0000000000000000 0.0000000000000000 0.0
0.0000000000000000 0.0000000000000000 0.0
0.0000000000000000 0.0000000000000000 0.0
0.0000000000000000 0.0000000000000000 0.0
0.0000000000000000 0.0000000000000000 0.0
0.0000000000000000 0.0000000000000000 0.0
0.0000000000000000 0.0000000000000000 0.0
0.0000000000000000 0.0000000000000000 0.0
0.0000000000000000 0.0000000000000000 0.0
0.0000000000000000 0.0000000000000000 0.0
0.0000000000000000 0.0000000000000000 0.0
0.0000000000000000 0.0000000000000000 0.0
0.0000000000000000 0.0000000000000000 0.0
1.0771019204794015 0.5442254142893264 0.0
0.9956043247889270 0.1375405421146346 0.0
0.9602442058726912 -0.0881215392776430 0.0
1.0633890413365543 -0.4540429672295917 0.0
0.0000000000000000 0.0000000000000000 0.0
0.0000000000000000 0.0000000000000000 0.0
0.0000000000000000 0.0000000000000000 0.0
0.0000000000000000 0.0000000000000000 0.0
0.0000000000000000 0.0000000000000000 0.0
0.0000000000000000 0.0000000000000000 0.0
0.0000000000000000 0.0000000000000000 0.0
0.0000000000000000 0.0000000000000000 0.0
0.0000000000000000 0.0000000000000000 0.0
0.0000000000000000 0.0000000000000000 0.0
0.0000000000000000 0.0000000000000000 0.0
0.0000000000000000 0.0000000000000000 0.0
0.0000000000000000 0.0000000000000000 0.0
0.0000000000000000 0.0000000000000000 0.0
0.0000000000000000 0.0000000000000000 0.0
0.0000000000000000 0.0000000000000000 0.0
0.0000000000000000 0.0000000000000000 0.0
0.0000000000000000 0.0000000000000000 0.0
0.0000000000000000 0.0000000000000000 0.0
0.0000000000000000 0.0000000000000000 0.0
0.0000000000000000 0.0000000000000000 0.0
0.0000000000000000 0.0000000000000000 0.0
0.0000000000000000 0.0000000000000000 0.0
0.0000000000000000 0.0000000000000000 0.0
0.0000000000000000 0.0000000000000000 0.0
0.0000000000000000 0.0000000000000000 0.0
0.0000000000000000 0.0000000000000000 0.0
0.0000000000000000 0.0000000000000000 0.0
0.0000000000000000 0.0000000000000000 0.0
0.0000000000000000 0.0000000000000000 0.0
0.0000000000000000 0.0000000000000000 0.0
0.0000000000000000 0.0000000000000000 0.0
0.0000000000000000 0.0000000000000000 0.0
0.0000000000000000 0.0000000000000000 0.0
0.0000000000000000 0.0000000000000000 0.0
0.0000000000000000 0.0000000000000000 0.0
0.0000000000000000 0.0000000000000000 0.0
0.0000000000000000 0.0000000000000000 0.0
0.0000000000000000 0.0000000000000000 0.0
0.0000000000000000 0.0000000000000000 0.0
0.0000000000000000 0.0000000000000000 0.0
0.0000000000000000 0.0000000000000000 0.0
0.0000000000000000 0.0000000000000000 0.0
0.0000000000000000 0.0000000000000000 0.0
0.0000000000000000 0.0000000000000000 0.0
0.0000000000000000 0.0000000000000000 0.0
1.0000000000000000 0.0000000000000000 0.0
1.0000000000000000 0.0000000000000000 0.0
1.0000000000000000 0.0000000000000000 0.0
1.0000000000000000 0.0000000000000000 0.0
0.0000000000000000 0.0000000000000000 0.0
0.0000000000000000 0.0000000000000000 0.0
0.0000000000000000 0.0000000000000000 0.0
0.0000000000000000 0.0000000000000000 0.0
0.0000000000000000 0.0000000000000000 0.0
0.0000000000000000 0.0000000000000000 0.0
0.0000000000000000 0.0000000000000000 0.0
0.0000000000000000 0.0000000000000000 0.0
0.0000000000000000 0.0000000000000000 0.0
0.0000000000000000 0.0000000000000000 0.0
0.0000000000000000 0.0000000000000000 0.0
0.0000000000000000 0.0000000000000000 0.0
1.5919613591979473 -0.0114578542649422 0.0
1.5945519815785330 0.0140950983849196 0.0
1.6356658038535317 -0.0115997911495477 0.0
1.6327658807427996 -0.0182689580554808 0.0
1.3454531743788938 0.0804889478616373 0.0
1.3685137253589921 0.0626354061561572 0.0
1.4094345710597502 -0.1083891447327732 0.0
1.3873827216169059 -0.1299321329647710 0.0
1.6109505567201594 0.0007826376194693 0.0
1.6104020514680204 -0.0073629654912998 0.0
1.5573941357793948 0.0053314356937315 0.0
1.5564686071879752 -0.0007517723180072 0.0
1.5728866311156093 -0.0318122882220581 0.0
1.5728976481727499 0.0164749738057446 0.0
1.6559471962153576 0.0095666516748377 0.0
1.6525693197848808 -0.0168051205300258 0.0
1.3212171180697556 0.3165903306869389 0.0
1.3206552643945439 0.3102908366932159 0.0
1.3578112974818868 0.0228237689414477 0.0
1.3551174603415992 -0.2310030553882601 0.0
1.3574455331648037 0.0174699881042764 0.0
1.3550533603474870 -0.2353050133966255 0.0
1.5492159770317149 0.0143928153305778 0.0
1.5328484251076695 -0.0342358064302775 0.0
1.3405687784077522 0.0059981406764344 0.0
1.3422864525069047 0.0056189410748739 0.0
1.2653915019514017 0.0003969188906885 0.0
1.2574267023624179 -0.0014020718104952 0.0
1.3047680531825889 -0.0063257858078139 0.0
1.2119730001686200 -0.0147299324972061 0.0
1.1830351873346483 0.0084697123810955 0.0
1.3263607515979430 0.0031251154652563 0.0
1.4606531761634178 0.1359262986055112 0.0
1.4610473364844088 0.1338047896910225 0.0
1.4331176427429668 -0.2725884657653107 0.0
1.4388984553128177 -0.2770009814167509 0.0
1.4417583157721556 0.3534948761558735 0.0
1.4367086413901946 0.3513868977461141 0.0
1.1811587387501772 -0.0289127339717308 0.0
1.3021278845953415 -0.0076840919600084 0.0
1.2933601014234315 -0.0166813158892091 0.0
1.1858624872700985 -0.0310474116649859 0.0
1.0811127002615402 -0.0638423451896976 0.0
1.0863880734184739 -0.0539280776702709 0.0
1.0985389732387807 0.0397981784878789 0.0
1.1074515126506357 0.0257375892501863 0.0
1.2553187972603637 0.0046106615244131 0.0
1.2404910903594952 -0.0203085918753099 0.0
1.2444393527505093 0.0187758325391261 0.0
1.2503746216544782 -0.0021823293796969 0.0
1.4403176772242887 -0.0308899208180143 0.0
1.3207884558318466 0.0530505592968463 0.0
1.4452166086661056 0.0336493185093125 0.0
1.3126989107985116 -0.0467677613338881 0.0
1.5786860775726743 -0.2277484190688712 0.0
1.5783196365994943 -0.2271482842946884 0.0
1.1566883979844182 -0.0536351655954656 0.0
1.1808376667617144 0.0577374239329428 0.0
1.1443376888694921 -0.0572688895620191 0.0
1.1892230394582355 0.0458826342056731 0.0
1.4290094364439647 0.0322673806020251 0.0
1.4397424280855113 -0.0297553125992308 0.0
1.2949582206016796 -0.1606979807518194 0.0
1.2811287598779493 0.1934716593355664 0.0
1.1905690157796798 0.0503193853195738 0.0
1.1393587943091705 -0.0048053380465478 0.0
1.1868138437730107 -0.0374823711756319 0.0
1.1545832293983831 0.0309370989669508 0.0
1.2893611115023373 0.0085478291462573 0.0
1.2964247899892016 -0.0146839128449791 0.0
1.1565431322129320 0.0378206125569541 0.0
1.2184510110263420 -0.0663094754977391 0.0
1.1590217091709096 0.0408827860331958 0.0
1.2156319925872738 -0.0648640810047071 0.0
1.1695358161128349 0.0694622185353918 0.0
1.1449988699027054 -0.0397738233798541 0.0
1.0998233647521720 -0.0579178018471535 0.0
1.2053234005735118 0.0510201124541344 0.0
1.1030210374585629 -0.0235325818555194 0.0
1.0968163307731251 0.0191130688799971 0.0
1.6084586513192614 0.0089283652208357 0.0
1.6105896488108451 -0.0002580600191022 0.0
1.4811846216737445 0.0333419126841274 0.0
1.4998971036192017 -0.0678291582227741 0.0
0.4770770302416738 -0.0134057409042303 0.0
0.4592646370758083 -0.0152205666128675 0.0
0.5750376643785190 0.1063272345590989 0.0
0.5941788177116921 0.1055658449924777 0.0
1.4642064560847519 0.4443732204257289 0.0
1.4595061255822006 0.4411684579575851 0.0
1.5434267337387111 -0.3570371124814922 0.0
1.5455043638024779 -0.3583416198217284 0.0
0.9872177799972796 0.0325360047006019 0.0
0.9878623023028159 0.0433887332766548 0.0
1.6116023636738064 0.0314635193179052 0.0
1.6039556629709870 -0.0432781501362924 0.0
1.1588539878768189 0.1959374396073165 0.0
1.1962932687567991 -0.2745223622439660 0.0
1.5223128881271797 -0.0541374043840497 0.0
1.4983251680821974 0.0126384499026166 0.0
0.7369778981537906 -0.0070677952294987 0.0
0.7586052940181145 0.0056761757557159 0.0
0.9014968760633587 -0.0165708745049333 0.0
0.9167140013354336 -0.0195900409024181 0.0
0.9319550818149788 0.0041872516069295 0.0
0.9193105377015619 0.0039650811926455 0.0
1.5777098072444484 -0.0261133070391578 0.0
1.5776083433298895 -0.0550500066852783 0.0
0.6671279572443747 -0.0844974753566267 0.0
0.6657918470668441 -0.0854660009551070 0.0
0.7140656522697006 0.0650667712187539 0.0
0.7130840185739274 0.0639575712440922 0.0
1.4960782620996695 0.0482363712030594 0.0
1.4966137011837353 0.0322648944759614 0.0
0.9003212778175286 -0.1238166179363221 0.0
0.9009418956961669 -0.1269774178850708 0.0
1.3577383725040475 0.0008193816272997 0.0
1.2764801488220179 0.0144032560587478 0.0
1.0036474838958440 -0.0941005984858513 0.0
1.0040339781226599 -0.0939564204506576 0.0
1.5142453834294050 -0.0289566292009065 0.0
1.5195609792437099 -0.0316986939268337 0.0
1.4826362370984911 0.0398783127088514 0.0
1.4863218924481147 0.0469556740965745 0.0
0.7518489994484787 -0.0075292579596787 0.0
0.7551666613653228 -0.0062917189425957 0.0
0.7060864167667884 0.0209755529685443 0.0
0.6958798194263194 0.0185814701276425 0.0
0.8170823402301770 0.0370118241265793 0.0
0.8404684821141942 -0.0646509861045798 0.0
0.7465778208138415 0.0896400813186057 0.0
0.7492133253895498 0.0867481569190821 0.0
1.5781340364290837 -0.0107555074481320 0.0
1.5881555042379218 0.0056394739213616 0.0
1.5907667651181465 -0.0077899798470159 0.0
1.5916188175789829 -0.0070788653255368 0.0
0.7026167365903040 -0.0030661163295852 0.0
0.7269533616146585 0.0261717296904449 0.0
0.7073098892833916 -0.0128937412391714 0.0
0.7053722740092038 0.0185915790494046 0.0
1.6266252242105901 -0.0019568819550033 0.0
1.6298363620353522 -0.0443061622265591 0.0
1.5196932094823257 -0.0116733848384394 0.0
1.5209771901379372 -0.0145333204283013 0.0
0.7151756245589385 -0.0105837726448238 0.0
0.6384565334501083 0.0177708011805079 0.0
0.6508658412535063 -0.0197380873687327 0.0
0.6970109571999902 0.0088263804516315 0.0
0.8052566702567766 0.0302700926676276 0.0
0.7789207706271344 -0.0218118221421160 0.0
0.8095393330947072 0.0209722518258571 0.0
0.7931827294932100 -0.0273527904665396 0.0
1.4134615706994333 -0.0096357664419042 0.0
1.4379822596589167 0.0011455836693646 0.0
1.4165986392081169 -0.0013849931420227 0.0
1.4381255087068348 0.0070207123587558 0.0
1.5784751535690675 0.0016784653855518 0.0
1.5668546308336493 -0.0106060691513577 0.0
1.3131117477073551 0.0084646359202691 0.0
1.3569016136248138 -0.0287200575042969 0.0
1.4088007250594252 0.0029870806559466 0.0
1.4164429208851415 -0.0135862858769586 0.0
0.7216593260527545 -0.0170115446007227 0.0
0.6699270229620308 0.0189990254811665 0.0
0.7232193581004230 -0.0183904974464820 0.0
0.6714998914373356 0.0205150585316612 0.0
0.5592508881204672 -0.1165571508931492 0.0
0.5634107105353456 -0.1113867199640921 0.0
1.2862930080008126 0.1182222883231431 0.0
1.2854534522547125 0.1158932415353146 0.0
1.4213652135428250 -0.0154559583751942 0.0
1.3836638999300652 -0.0398849445784253 0.0
1.3873832476476375 0.0224028943935694 0.0
1.4226954388319089 -0.0028458160927305 0.0
0.7984687097437713 -0.0652799513443196 0.0
0.7979041136324772 0.0750131893948621 0.0
1.1210335312094299 -0.1554032289286330 0.0
1.1216742725504392 -0.1517043433001766 0.0
1.1247856574197412 0.2202583603163241 0.0
1.1200708653201310 0.2215213783389493 0.0
0.8464091887350206 -0.0428002113701736 0.0
0.8070252226056214 0.0489307180615062 0.0
0.8421094117234725 -0.0384138386323665 0.0
0.8126318898179372 0.0553092461567838 0.0
1.5540260823031158 -0.0100422004536742 0.0
1.5544243651861815 -0.0194660454127593 0.0
0.6850149177185926 -0.0210556703447640 0.0
0.7031625929847726 0.0035916676525736 0.0
0.6467531982608430 0.0249034353015808 0.0
0.7316884063876425 0.0422377794650069 0.0
0.6605905130453795 0.0019203418547629 0.0
0.6655204877564616 -0.0024380123800641 0.0
1.4091077800989429 -0.2077408846499940 0.0
1.4061759117214221 -0.1993528986348559 0.0
1.2711827809303955 0.2595108374864591 0.0
1.2718681627697854 0.2432223004826260 0.0
0.4804228352781066 -0.0512022949373568 0.0
0.4884548565441327 -0.0504796361204890 0.0
0.4868299122198683 0.0523885004430425 0.0
0.4951396628951295 0.0506670259276509 0.0
1.4017653903703049 -0.0057902191735277 0.0
1.4046435640158588 -0.0031753625346865 0.0
1.4224396437334423 -0.1580930298689125 0.0
1.4376487674921641 -0.1567308526871275 0.0
1.4433359774846060 0.1742673429078695 0.0
1.4241992998897366 0.1708954993885866 0.0
0.8527128553279490 0.0395635360484570 0.0
0.7439912567313751 -0.1087774079039713 0.0
0.8384679919135564 0.0510836549924029 0.0
0.7626215875407233 -0.0924590020459626 0.0
1.3972171261767634 -0.0447667234367124 0.0
1.3695013462649901 0.0514804874333050 0.0
1.3924581146374981 -0.0374488744997014 0.0
1.3726618434957130 0.0598777429149827 0.0
1.5102441626742387 0.0009388641934615 0.0
1.5088777816150678 -0.0308684253129667 0.0
0.6468285805590716 0.0020911789349394 0.0
0.6494119686241049 0.0044933449745399 0.0
1.3902767169933390 0.0796328031963060 0.0
1.4028859662685038 0.0529966504277731 0.0
1.5195387962477314 -0.0420292458394553 0.0
1.4951716709876774 0.0458612924068151 0.0
0.7016587494156634 0.0910567537436822 0.0
0.6889167715509424 0.0986713895179039 0.0
1.4627128968581236 -0.0288182256355781 0.0
1.4143604768304319 0.0354526162617334 0.0
1.4137187631419248 -0.0495169549794381 0.0
1.4624515519081231 0.0042726339558144 0.0
1.6334736877836944 0.0194936648643750 0.0
1.6468301274113177 -0.0266044617286911 0.0
0.5031198596717851 0.0001736295404127 0.0
0.5011615001839030 0.0018502940180469 0.0
1.5289929701577571 -0.0320033032400948 0.0
1.5259252719322343 0.0315355529656745 0.0
0.9374107061075470 0.2269560197649776 0.0
0.9058573085236589 -0.2232590610470853 0.0
1.5034553806623949 -0.0155356178835353 0.0
1.5008789340680890 -0.0054387097254121 0.0
1.3111361540771818 0.0054695064120424 0.0
1.3544872506297168 -0.0297498603490785 0.0
1.3233938939015208 -0.0171434736359296 0.0
1.3278314996044174 -0.0161060574092897 0.0
1.2050996221578782 -0.1193998189983946 0.0
1.2051528618443892 -0.1194259108306927 0.0
1.4914009930121601 -0.0171967962651147 0.0
1.4419752836686495 -0.0009293070318201 0.0
1.4526505737640711 -0.0305351033242430 0.0
1.4409914177418608 0.0318606282729165 0.0
1.4988920918361028 -0.0229227492468654 0.0
1.4480468983300940 0.0048341312197632 0.0
0.4295667848751651 0.0476240947305536 0.0
0.4322150346037231 0.0443136950934258 0.0
0.4252114115397563 -0.0314392103991042 0.0
0.4181402926863314 -0.0347289060423510 0.0
1.4354901895980476 -0.3288786660627286 0.0
1.4366947596321777 -0.3318991190205993 0.0
0.3968446915937400 0.0067207312495192 0.0
0.4058833608425180 -0.0109286463803275 0.0
1.5120949756663511 0.3257962949326311 0.0
1.5134569213848348 0.3204489490146679 0.0
0.5926239567380590 0.0987445473805793 0.0
0.5934698963217229 0.0976243729936218 0.0
1.5181060783241043 0.0236644936866657 0.0
1.5216222348817985 -0.0228310263496464 0.0
1.3283154838327702 -0.0150345405131685 0.0
1.3420192791811028 0.0137644812737930 0.0
1.4590647797695144 -0.3741067393290143 0.0
1.4547664797849416 -0.3703078419421872 0.0
1.3982843701060619 0.4822669646105602 0.0
1.4079470658988265 0.4793425851286175 0.0
1.5881348520395440 0.0094782896929750 0.0
1.5858075733817738 0.0102824953310196 0.0
0.4856883894220745 0.0544188698213283 0.0
0.4643679695795149 -0.0606385014570964 0.0
0.4786087036543309 0.0584807286970594 0.0
0.4744291804321907 -0.0569215821548836 0.0
0.3878120324188885 0.0280069902787541 0.0
0.4090153410191243 0.0281800505140759 0.0
0.4229860790385587 -0.0152148532634769 0.0
0.4449766491985997 -0.0165244014418153 0.0
1.2434641285986239 -0.2031736660782958 0.0
1.2607093306643369 -0.2044297618917502 0.0
1.2717002730650850 0.2768960132872294 0.0
1.2553451991777151 0.2759245077193867 0.0
1.2072571329067927 -0.2718616384686870 0.0
1.1809335530492711 0.2659376175972690 0.0
1.4510913373779077 0.0029395598397945 0.0
1.4580036827686471 0.0158021541457902 0.0
0.5097102325535589 -0.0092819383939030 0.0
0.4844825459670883 -0.0005437642141420 0.0
0.5201518726065598 0.0143275338724893 0.0
0.4981785404918850 0.0044436541410513 0.0
1.4862901509061468 -0.0213873107342413 0.0
1.4741450510580583 0.0051052642134733 0.0
1.3341139048903257 -0.0260980084875534 0.0
1.3349366007113499 -0.0234307945724274 0.0
0.8720360114763008 0.2643417727380932 0.0
0.9351752778535859 -0.2433804319932457 0.0
1.0418579928683316 0.0760859571050139 0.0
1.0481689449756368 0.0819062657758732 0.0
1.0597057395663769 -0.0993244241834600 0.0
1.0601771221265797 -0.1015970440939363 0.0
0.6353247029391439 -0.1341209005516813 0.0
0.6496270892518319 0.1422769838503207 0.0
0.2868152738091076 -0.0246622344099428 0.0
0.2898158469635396 -0.0238914636067214 0.0
0.2959945488901543 -0.0102924310648528 0.0
0.2948097380187031 -0.0101969160771063 0.0
0.3560319050340205 -0.0116456859257812 0.0
0.3557612402148598 0.0118140453795528 0.0
1.2241640425718898 0.3284023594668816 0.0
1.1734627424610045 -0.2645212128385198 0.0
0.5058884042618685 -0.0602339261024607 0.0
0.4946140154424651 0.0720843929739612 0.0
0.5051550332613031 -0.0594607807770717 0.0
0.4957526238737792 0.0738829226246032 0.0
1.4848970364709719 0.0481277713427833 0.0
1.4957155001811970 -0.0611257317775079 0.0
0.4521164634386159 0.0758342423530913 0.0
0.5224866468468129 -0.1242900820580656 0.0
0.9598156024220942 0.0616574576678823 0.0
0.9561534051365510 0.0599958664493765 0.0
0.9834761524299249 -0.0585253473655976 0.0
0.9841540414114907 -0.0585670970439398 0.0
0.8761850361443787 0.0289709637206390 0.0
0.8766778718934607 0.0383369550414477 0.0
0.5327420162039468 0.0442180597153742 0.0
0.5075505997888774 -0.0574605853200173 0.0
0.5299619021957901 0.0428166013645771 0.0
0.5062334925930458 -0.0576693985220644 0.0
1.5440612479587148 -0.0060666395801825 0.0
1.5403365986821842 -0.0032330330752049 0.0
0.4246371397085024 -0.0721774932537800 0.0
0.4742686124091961 0.0498310567895615 0.0
0.4590514939122478 0.0611039385179669 0.0
0.4443853979378178 -0.0608051977945284 0.0
1.0160140426084263 0.0387819311762500 0.0
1.0514021011730310 0.0410000332332439 0.0
1.0821755231652059 -0.0552736461581079 0.0
1.0575558985994886 -0.0587625655898087 0.0
1.3126449247900314 0.0186000220759107 0.0
1.3101340017776111 0.0262232525947989 0.0
1.3548571689746904 -0.0673361306921377 0.0
1.3688064970120242 -0.0398891113606224 0.0
1.0613670583075578 -0.1219328543933590 0.0
1.0566562788957430 -0.1283933705595713 0.0
0.5286751446322171 -0.0015883991322502 0.0
0.5301428579335028 0.0078729538293124 0.0
0.5361548794221931 0.0041846274276321 0.0
0.5204071667771535 -0.0061269500677909 0.0