# vtk DataFile Version 3.0
LucasCarvalhoTCC Results
ASCII

DATASET POLYDATA
FIELD FieldData 1
TIME 1 1 double
3.2

POINTS 494 float
0.0 0.0 0.0
8.0 0.0 0.0
8.0 1.0 0.0
0.0 1.0 0.0
4.0 0.0 0.0
4.0 1.0 0.0
4.0 0.35 0.0
4.0 0.65 0.0
0.2010296266416496 1.0 0.0
0.3986915135488555 1.0 0.0
0.5930420631591132 1.0 0.0
0.7841367769318693 1.0 0.0
0.9720301907499852 1.0 0.0
1.156775924166146 1.0 0.0
1.33842670621592 1.0 0.0
1.517034389070868 1.0 0.0
1.69264994674003 1.0 0.0
1.865323550794866 1.0 0.0
2.035104414722059 1.0 0.0
2.202040983487818 1.0 0.0
2.366180993436638 1.0 0.0
2.527571282866703 1.0 0.0
2.686257831390245 1.0 0.0
2.842286022819771 1.0 0.0
2.995700353514032 1.0 0.0
3.146544637914273 1.0 0.0
3.294861880721452 1.0 0.0
3.440694398353104 1.0 0.0
3.58408394609007 1.0 0.0
3.725071294102791 1.0 0.0
3.863696788294668 1.0 0.0
4.136303211705004 1.0 0.0
4.274928705896546 1.0 0.0
4.415916053908917 1.0 0.0
4.55930560164552 1.0 0.0
4.7051381192768 1.0 0.0
4.853455362083593 1.0 0.0
5.004299646483437 1.0 0.0
5.157713977177285 1.0 0.0
5.313742168606385 1.0 0.0
5.472428717129489 1.0 0.0
5.6338190065591 1.0 0.0
5.797959016507455 1.0 0.0
5.96489558527273 1.0 0.0
6.134676449200184 1.0 0.0
6.307350053255487 1.0 0.0
6.482965610925135 1.0 0.0
6.661573293780584 1.0 0.0
6.843224075830887 1.0 0.0
7.027969809247587 1.0 0.0
7.215863223066262 1.0 0.0
7.4069579368396 1.0 0.0
7.601308486450315 1.0 0.0
7.798970373357896 1.0 0.0
8.0 0.7999999999999996 0.0
8.0 0.6000000000013874 0.0
8.0 0.4000000000016649 0.0
8.0 0.2000000000008324 0.0
7.798970373357898 0.0 0.0
7.601308486450317 0.0 0.0
7.406957936839601 0.0 0.0
7.215863223066265 0.0 0.0
7.02796980924759 0.0 0.0
6.843224075830888 0.0 0.0
6.661573293780592 0.0 0.0
6.482965610925139 0.0 0.0
6.307350053255492 0.0 0.0
6.134676449200188 0.0 0.0
5.964895585272735 0.0 0.0
5.797959016507459 0.0 0.0
5.633819006559103 0.0 0.0
5.472428717129493 0.0 0.0
5.313742168606389 0.0 0.0
5.157713977177288 0.0 0.0
5.004299646483441 0.0 0.0
4.853455362083597 0.0 0.0
4.705138119276803 0.0 0.0
4.559305601645523 0.0 0.0
4.415916053908919 0.0 0.0
4.274928705896549 0.0 0.0
4.136303211705007 0.0 0.0
3.863696788294383 0.0 0.0
3.725071294102209 0.0 0.0
3.584083946089184 0.0 0.0
3.440694398352564 0.0 0.0
3.29486188072223 0.0 0.0
3.146544637916415 0.0 0.0
2.995700353517581 0.0 0.0
2.842286022824779 0.0 0.0
2.68625783139676 0.0 0.0
2.527571282874774 0.0 0.0
2.366180993446318 0.0 0.0
2.202040983499156 0.0 0.0
2.035104414735112 0.0 0.0
1.865323550807426 0.0 0.0
1.692649946751479 0.0 0.0
1.517034389081164 0.0 0.0
1.338426706225015 0.0 0.0
1.156775924174005 0.0 0.0
0.9720301907565596 0.0 0.0
0.784136776937109 0.0 0.0
0.5930420631629705 0.0 0.0
0.3986915135514271 0.0 0.0
0.2010296266429896 0.0 0.0
0.0 0.199999999999558 0.0
0.0 0.3999999999989746 0.0
0.0 0.5999999999989464 0.0
0.0 0.7999999999994731 0.0
4.065082561150232 0.3648546699507293 0.0
4.117274722996153 0.4064765305061043 0.0
4.146239186965635 0.4666218605127571 0.0
4.146239186588658 0.5333781411388893 0.0
4.117274722147235 0.5935234705584039 0.0
4.065082560620447 0.6351453303044018 0.0
3.934917439190226 0.6351453302132268 0.0
3.882725277520537 0.5935234701418048 0.0
3.853760813071839 0.5333781396514286 0.0
3.853760813263242 0.4666218595099774 0.0
3.882725277782338 0.4064765295299076 0.0
3.934917439246251 0.3648546697597932 0.0
3.348071016817302 0.5037366844559412 0.0
4.65817771841185 0.4813089492125461 0.0
5.148432135339639 0.5000000000000013 0.0
2.851567863014233 0.5000000000000465 0.0
4.406326506211093 0.3072680842959042 0.0
3.575604791543614 0.6706702532911111 0.0
4.424395205595821 0.6706702556565258 0.0
3.593673497058965 0.3072680820819204 0.0
5.648652107845511 0.5000000000000006 0.0
2.351347890458042 0.4999999999998563 0.0
1.851146954963573 0.4999999999998219 0.0
6.148853043290459 0.4999999999999989 0.0
6.65089532386231 0.5241211434250735 0.0
1.349104674975677 0.4758788558671475 0.0
7.150713697794147 0.4858064203922342 0.0
0.8492863006035025 0.4858064203396458 0.0
4.216343713145164 0.2287135668575249 0.0
3.7836562881134 0.7712864338025908 0.0
4.346988371127422 0.5000000019594898 0.0
4.213775907987267 0.7756803165215952 0.0
3.653011628408684 0.4999999990051173 0.0
3.786224091202296 0.224319683220954 0.0
7.572712389010231 0.5763628491757339 0.0
0.4272876103144935 0.5763628498169726 0.0
4.881741322202974 0.3185523670790996 0.0
3.118258676783759 0.6814476337404539 0.0
3.126854924363118 0.2792890251323842 0.0
4.873145074373641 0.7207109754187309 0.0
5.398381996912613 0.291094588046412 0.0
5.396092528392672 0.7230702977293901 0.0
2.603907471650227 0.7230702981371074 0.0
2.601618001742297 0.2910945873520305 0.0
4.065645388412852 0.1903894420877926 0.0
3.934354612281609 0.8096105573695707 0.0
4.268393145079946 0.6292513280674802 0.0
3.731606853978594 0.3707486723017213 0.0
4.265062587797852 0.3723525870906427 0.0
3.734937412407246 0.6276474138958879 0.0
5.89991820844496 0.720584760457478 0.0
5.899661142431216 0.2940789491313893 0.0
2.100338856207466 0.7059210507243335 0.0
2.100081790085733 0.2794152396968363 0.0
4.648216390708278 0.2460745758417431 0.0
3.350865525112209 0.7519279174007294 0.0
3.351783614314077 0.2460745727859678 0.0
4.649134469923633 0.7519279206208029 0.0
6.386000070083336 0.2800687217561524 0.0
6.399946740387701 0.7091877900019353 0.0
1.613999929083956 0.7199312783619409 0.0
1.600053258667474 0.2908122092889953 0.0
1.099018086220021 0.3101534564461602 0.0
1.099018086220183 0.6898465435530818 0.0
6.900981912171285 0.3101534566801202 0.0
6.900981912171287 0.689846543319878 0.0
3.934891793257755 0.2336799984692873 0.0
4.065108206439434 0.7663200008196746 0.0
5.133077706310633 0.254681732561614 0.0
5.131620328745691 0.7509194919064351 0.0
2.866922291796803 0.7453182673725732 0.0
2.868379670398546 0.2490805081265555 0.0
0.5973224633027379 0.3123440263675117 0.0
7.402677535116692 0.3123440263206204 0.0
7.70928508668797 0.2984218335093966 0.0
0.2907149122204558 0.2984218350042115 0.0
2.359042531710287 0.2526358364218651 0.0
2.362552667743482 0.7498876177132479 0.0
5.640957467742433 0.2526358368965552 0.0
5.637447332034727 0.7498876177447886 0.0
7.330771635020911 0.7204300868765696 0.0
0.6692283641678903 0.7204300870263377 0.0
6.141991504218947 0.7500064293114952 0.0
6.143214654121697 0.2541610692540839 0.0
1.858008494097047 0.2499935706645152 0.0
1.856785344746094 0.7458389307817799 0.0
1.360037479834015 0.7503851535261052 0.0
1.363297687800482 0.2332108063209677 0.0
6.636702311691573 0.7667891933666813 0.0
6.639962519949044 0.2496148464378299 0.0
7.14328150074831 0.2292696686424185 0.0
0.8567184978980538 0.2292696684503961 0.0
4.845173759433459 0.5000000012080886 0.0
3.15482623877425 0.4999999993865263 0.0
3.514470413944982 0.5755907957035395 0.0
4.485529584365944 0.5755907996488695 0.0
4.350214515329574 0.8947484376274254 0.0
3.64978548377064 0.1052515623441257 0.0
4.356280753270322 0.1397878825788729 0.0
3.643719248073251 0.8602121180766233 0.0
4.157657982820168 0.3023031440803671 0.0
3.842342017851872 0.6976968563131654 0.0
4.149794964153143 0.6947625877680722 0.0
3.850205035403508 0.3052374120341299 0.0
4.252863769441745 0.5000000013253333 0.0
3.747136230269581 0.4999999993774377 0.0
2.66150837620265 0.4835883053501762 0.0
5.338491622258749 0.4835883052760253 0.0
7.732076714471282 0.7613785341653052 0.0
0.267923285219987 0.7613785345749642 0.0
3.482582425594127 0.3988584940714734 0.0
4.517417574829351 0.3988584973195787 0.0
7.120961454429095 0.7969630876933931 0.0
0.8790385446795201 0.7969630878928393 0.0
4.524178509919695 0.1937066442020419 0.0
3.472973035782958 0.803602443762734 0.0
4.527026959328886 0.8036024455277256 0.0
3.475821495314308 0.1937066425220846 0.0
5.834485749168302 0.4775259269822466 0.0
2.16551424934095 0.5224740729963462 0.0
4.803832126993392 0.8343163881584211 0.0
3.196167871756218 0.1656836120733276 0.0
3.196167870279283 0.834316388182051 0.0
4.803832130306974 0.1656836112805605 0.0
1.646902821176459 0.5088844228822333 0.0
6.35309717778631 0.4911155766888507 0.0
4.128745436683365 0.8608937921704661 0.0
3.871254562700506 0.1391062074145501 0.0
7.783519314041498 0.4824599318584197 0.0
0.2164806854160975 0.4824599323519634 0.0
3.981228286637499 0.1341601386487245 0.0
4.018771713398118 0.8658398609794804 0.0
4.757705393330306 0.6277793253200102 0.0
3.245404476813698 0.3720431195654205 0.0
3.262406961538709 0.609092082228193 0.0
4.738552632749474 0.3854106153034425 0.0
4.980576921401999 0.1828043249223437 0.0
3.019423077460087 0.8171956749482756 0.0
4.975386875116307 0.8288560892267683 0.0
3.024613123995747 0.1711439108946455 0.0
7.537862127958827 0.7914398748884439 0.0
0.46213787149577 0.7914398749623154 0.0
4.150965283491015 0.1232311208167031 0.0
3.849034718225983 0.8767688792466098 0.0
0.6330166515036239 0.5212993800799176 0.0
7.366983347335347 0.5212993798709434 0.0
5.001451172914062 0.4591396125040952 0.0
2.998548825585332 0.5408603877155073 0.0
5.250532135494552 0.1623854812497458 0.0
5.24999687257574 0.8404382486850067 0.0
2.749794930508214 0.8396380739052673 0.0
2.749676059914328 0.161585306286623 0.0
1.150631951549359 0.5017906253149568 0.0
6.85747267660715 0.5137706215776152 0.0
2.938770240933895 0.3859183074771494 0.0
5.061229757952985 0.6140816927005173 0.0
5.521883200863776 0.8371838481144578 0.0
5.520780843451154 0.1567733764659754 0.0
2.479219155991939 0.1567733759623464 0.0
2.478116798894765 0.8371838481096507 0.0
2.208224060227917 0.1725929992863016 0.0
2.214655190115911 0.821187355218689 0.0
5.791775938918927 0.8274070011383262 0.0
5.785558009721889 0.1789659155514431 0.0
5.243140500145841 0.3651007420679131 0.0
5.247758683472709 0.6318228659349833 0.0
2.748336099792684 0.6332079670712092 0.0
2.766145970608876 0.3583112578457802 0.0
2.500794992947401 0.4517155340697119 0.0
5.499205006433885 0.4517155344186723 0.0
3.472119223331378 0.69283875816516 0.0
4.527880773131323 0.6928387614752662 0.0
2.445947440949104 0.6396216022327238 0.0
5.554052558509333 0.6396216019605415 0.0
1.976669571201813 0.1631348676957265 0.0
[...]
POINT_DATA 494

VECTORS Velocity float
0.0000000000000000 0.0000000000000000 0.0
0.8198906822543452 -0.1380792759674455 0.0
0.0000000000000000 0.0000000000000000 0.0
0.0000000000000000 0.0000000000000000 0.0
0.0000000000000000 0.0000000000000000 0.0
0.0000000000000000 0.0000000000000000 0.0
0.0000000000000000 0.0000000000000000 0.0
0.0000000000000000 0.0000000000000000 0.0
0.0000000000000000 0.0000000000000000 0.0
0.0000000000000000 0.0000000000000000 0.0
0.0000000000000000 0.0000000000000000 0.0
0.0000000000000000 0.0000000000000000 0.0
0.0000000000000000 0.0000000000000000 0.0
0.0000000000000000 0.0000000000000000 0.0
0.0000000000000000 0.0000000000000000 0.0
0.0000000000000000 0.0000000000000000 0.0
0.0000000000000000 0.0000000000000000 0.0
0.0000000000000000 0.0000000000000000 0.0
0.0000000000000000 0.0000000000000000 0.0
0.0000000000000000 0.0000000000000000 0.0
0.0000000000000000 0.0000000000000000 0.0
0.0000000000000000 0.0000000000000000 0.0
0.0000000000000000 0.0000000000000000 0.0
0.0000000000000000 0.0000000000000000 0.0
0.0000000000000000 0.0000000000000000 0.0
0.0000000000000000 0.0000000000000000 0.0
0.0000000000000000 0.0000000000000000 0.0
0.0000000000000000 0.0000000000000000 0.0
0.0000000000000000 0.0000000000000000 0.0
0.0000000000000000 0.0000000000000000 0.0
0.0000000000000000 0.0000000000000000 0.0
0.0000000000000000 0.0000000000000000 0.0
0.0000000000000000 0.0000000000000000 0.0
0.0000000000000000 0.0000000000000000 0.0
0.0000000000000000 0.0000000000000000 0.0
0.0000000000000000 0.0000000000000000 0.0
0.0000000000000000 0.0000000000000000 0.0
0.0000000000000000 0.0000000000000000 0.0
0.0000000000000000 0.0000000000000000 0.0
0.0000000000000000 0.0000000000000000 0.0
0.0000000000000000 0.0000000000000000 0.0
0.0000000000000000 0.0000000000000000 0.0
0.0000000000000000 0.0000000000000000 0.0
0.0000000000000000 0.0000000000000000 0.0
0.0000000000000000 0.0000000000000000 0.0
0.0000000000000000 0.0000000000000000 0.0
0.0000000000000000 0.0000000000000000 0.0
0.0000000000000000 0.0000000000000000 0.0
0.0000000000000000 0.0000000000000000 0.0
0.0000000000000000 0.0000000000000000 0.0
0.0000000000000000 0.0000000000000000 0.0
0.0000000000000000 0.0000000000000000 0.0
0.0000000000000000 0.0000000000000000 0.0
0.0000000000000000 0.0000000000000000 0.0
1.0770968543101991 0.5442951197356540 0.0
0.9956031391660917 0.1376802496938901 0.0
0.9602383803177851 -0.0879913764063638 0.0
1.0633882942489712 -0.4539948699644055 0.0
0.0000000000000000 0.0000000000000000 0.0
0.0000000000000000 0.0000000000000000 0.0
0.0000000000000000 0.0000000000000000 0.0
0.0000000000000000 0.0000000000000000 0.0
0.0000000000000000 0.0000000000000000 0.0
0.0000000000000000 0.0000000000000000 0.0
0.0000000000000000 0.0000000000000000 0.0
0.0000000000000000 0.0000000000000000 0.0
0.0000000000000000 0.0000000000000000 0.0
0.0000000000000000 0.0000000000000000 0.0
0.0000000000000000 0.0000000000000000 0.0
0.0000000000000000 0.0000000000000000 0.0
0.0000000000000000 0.0000000000000000 0.0
0.0000000000000000 0.0000000000000000 0.0
0.0000000000000000 0.0000000000000000 0.0
0.0000000000000000 0.0000000000000000 0.0
0.0000000000000000 0.0000000000000000 0.0
0.0000000000000000 0.0000000000000000 0.0
0.0000000000000000 0.0000000000000000 0.0
0.0000000000000000 0.0000000000000000 0.0
0.0000000000000000 0.0000000000000000 0.0
0.0000000000000000 0.0000000000000000 0.0
0.0000000000000000 0.0000000000000000 0.0
0.0000000000000000 0.0000000000000000 0.0
0.0000000000000000 0.0000000000000000 0.0
0.0000000000000000 0.0000000000000000 0.0
0.0000000000000000 0.0000000000000000 0.0
0.0000000000000000 0.0000000000000000 0.0
0.0000000000000000 0.0000000000000000 0.0
0.0000000000000000 0.0000000000000000 0.0
0.0000000000000000 0.0000000000000000 0.0
0.0000000000000000 0.0000000000000000 0.0
0.0000000000000000 0.0000000000000000 0.0
0.0000000000000000 0.0000000000000000 0.0
0.0000000000000000 0.0000000000000000 0.0
0.0000000000000000 0.0000000000000000 0.0
0.0000000000000000 0.0000000000000000 0.0
0.0000000000000000 0.0000000000000000 0.0
0.0000000000000000 0.0000000000000000 0.0
0.0000000000000000 0.0000000000000000 0.0
0.0000000000000000 0.0000000000000000 0.0
0.0000000000000000 0.0000000000000000 0.0
0.0000000000000000 0.0000000000000000 0.0
0.0000000000000000 0.0000000000000000 0.0
0.0000000000000000 0.0000000000000000 0.0
0.0000000000000000 0.0000000000000000 0.0
1.0000000000000000 0.0000000000000000 0.0
1.0000000000000000 0.0000000000000000 0.0
1.0000000000000000 0.0000000000000000 0.0
1.0000000000000000 0.0000000000000000 0.0
0.0000000000000000 0.0000000000000000 0.0
0.0000000000000000 0.0000000000000000 0.0
0.0000000000000000 0.0000000000000000 0.0
0.0000000000000000 0.0000000000000000 0.0
0.0000000000000000 0.0000000000000000 0.0
0.0000000000000000 0.0000000000000000 0.0
0.0000000000000000 0.0000000000000000 0.0
0.0000000000000000 0.0000000000000000 0.0
0.0000000000000000 0.0000000000000000 0.0
0.0000000000000000 0.0000000000000000 0.0
0.0000000000000000 0.0000000000000000 0.0
0.0000000000000000 0.0000000000000000 0.0
1.5958975287073589 -0.0123352678258234 0.0
1.5983990929119367 0.0136999398953935 0.0
1.6364720563308255 -0.0117146822157130 0.0
1.6335596405839485 -0.0178977447160366 0.0
1.3443633200645857 0.0817972810929122 0.0
1.3681312542906985 0.0631957344282479 0.0
1.4101326240635370 -0.1087108700007852 0.0
1.3874953869881683 -0.1309935218238915 0.0
1.6113511999753063 0.0006385302384166 0.0
1.6108172418805895 -0.0078030271239211 0.0
1.5575774603007375 0.0054868309399950 0.0
1.5566760997014344 -0.0007634438605130 0.0
1.5730316951135155 -0.0318320401893245 0.0
1.5730418270587496 0.0165837672506640 0.0
1.6561244070986287 0.0096796743506544 0.0
1.6527404178657303 -0.0169383447318311 0.0
1.3204740405603244 0.3182752118815774 0.0
1.3199393738247309 0.3118217736586748 0.0
1.3617998412254348 0.0230697624851408 0.0
1.3540479884278842 -0.2324634490356807 0.0
1.3615076126259202 0.0176512016757621 0.0
1.3538596767398781 -0.2369546358433698 0.0
1.5492231826388774 0.0142993975711333 0.0
1.5329060671365562 -0.0341276035525593 0.0
1.3406278578878426 0.0053208322909693 0.0
1.3426296147507937 0.0050964044946192 0.0
1.2645660180543563 0.0011666805964977 0.0
1.2569107091524057 -0.0008349424889055 0.0
1.3046976732680382 -0.0064543958310528 0.0
1.2117984891942826 -0.0147524616856692 0.0
1.1824875692990997 0.0084506095517961 0.0
1.3266267455781360 0.0032396970447397 0.0
1.4606582013303171 0.1362523671060270 0.0
1.4610487208820158 0.1341147970682029 0.0
1.4348758960285994 -0.2741385656322689 0.0
1.4407169155068200 -0.2788050251800725 0.0
1.4421263629188659 0.3559072115015177 0.0
1.4371820806198119 0.3534923871138442 0.0
1.1808688790993103 -0.0288900306634933 0.0
1.3022851558398854 -0.0077826299962530 0.0
1.2935561320800237 -0.0170193699151815 0.0
1.1855180863649051 -0.0312241986263494 0.0
1.0795238180886697 -0.0649183014122945 0.0
1.0851870860323627 -0.0549691299462835 0.0
1.0968496598303437 0.0407428180466817 0.0
1.1062746735265983 0.0266070455135078 0.0
1.2554947741724731 0.0045384189287057 0.0
1.2403180157664118 -0.0203989968847957 0.0
1.2445265451968581 0.0190585327841439 0.0
1.2502999543723137 -0.0018821651613700 0.0
1.4404342372973196 -0.0310986733593291 0.0
1.3206771573999505 0.0529112076742305 0.0
1.4454222555123997 0.0338398664023948 0.0
1.3124869038125941 -0.0466372198032886 0.0
1.5785019484927665 -0.2285003562964132 0.0
1.5781550423545585 -0.2278542517368528 0.0
1.1562616373985313 -0.0540087488331031 0.0
1.1805344905219473 0.0581353761363362 0.0
1.1438553256191337 -0.0573889379558173 0.0
1.1889377731437061 0.0464752962825420 0.0
1.4288998200190732 0.0323865058431229 0.0
1.4397428740932079 -0.0298773609034090 0.0
1.2950239576771654 -0.1607244704327418 0.0
1.2810979564632925 0.1935201793517598 0.0
1.1905362900333014 0.0501039072372609 0.0
1.1389890197363617 -0.0049396369994969 0.0
1.1867538024404081 -0.0375138081613822 0.0
1.1543007792498186 0.0308524490361952 0.0
1.2893874601054105 0.0085597608928655 0.0
1.2965656284269886 -0.0147009589042877 0.0
1.1562432479559461 0.0378351992624152 0.0
1.2185552282031071 -0.0663389211806105 0.0
1.1585769144404594 0.0409534094495815 0.0
1.2158971619146650 -0.0648695672841451 0.0
1.1693431682976694 0.0695185033626137 0.0
1.1450942584861512 -0.0397301391708099 0.0
1.0994161392822215 -0.0578916473072509 0.0
1.2055302363140636 0.0510094448720228 0.0
1.1029202960956697 -0.0235080415223352 0.0
1.0965953060084668 0.0190899700429671 0.0
1.6106483679397496 0.0087442601560307 0.0
1.6129000847904515 -0.0002998902264657 0.0
1.4842292329057039 0.0327845467905676 0.0
1.5037057885531857 -0.0679060512979915 0.0
0.4754094708562830 -0.0137117739304433 0.0
0.4574155500420378 -0.0155890125966922 0.0
0.5733787992774494 0.1066049608225587 0.0
0.5926659303591808 0.1058043602488439 0.0
1.4644021598057826 0.4456867510319392 0.0
1.4596944831905208 0.4424201915540763 0.0
1.5439229656823168 -0.3583818382624678 0.0
1.5460183143158233 -0.3598121666685728 0.0
0.9886505966039023 0.0332333141548851 0.0
0.9893263680168726 0.0439266197916039 0.0
1.6120972346873936 0.0317178969753866 0.0
1.6043509478481937 -0.0434599759890415 0.0
1.1587622918354568 0.1959335824733798 0.0
1.1962973429452304 -0.2745147275598896 0.0
1.5261631124296045 -0.0542288681800651 0.0
1.5012337624911563 0.0118392959320617 0.0
0.7368889424903401 -0.0069891158854436 0.0
0.7585944155109643 0.0055813779350248 0.0
0.8984752564398742 -0.0166202509551331 0.0
0.9141906260817273 -0.0196559789122132 0.0
0.9294815478302859 0.0043835012506471 0.0
0.9162518700063945 0.0041435414542512 0.0
1.5780788373573731 -0.0262378972125731 0.0
1.5780179998814279 -0.0555862189748584 0.0
0.6660299466430813 -0.0841711850844905 0.0
0.6644200216555232 -0.0850811007300590 0.0
0.7131328298387974 0.0646569173723965 0.0
0.7118773805278696 0.0635217718624556 0.0
1.4962116844261155 0.0486507315975175 0.0
1.4967663714805126 0.0322229125358707 0.0
0.8999032997069483 -0.1244392395099441 0.0
0.9005006827320378 -0.1276485285070631 0.0
1.3577653622636572 0.0008623638520904 0.0
1.2764885432707971 0.0144375185533731 0.0
1.0037245331950557 -0.0943337444938533 0.0
1.0040990894490178 -0.0941762560991227 0.0
1.5155310519742464 -0.0282964910576244 0.0
1.5205943458183102 -0.0309383583004241 0.0
1.4843620977666374 0.0389787751340480 0.0
1.4878200871890781 0.0460976578875872 0.0
0.7510058505648483 -0.0078512956502629 0.0
0.7545032163957337 -0.0064848962115073 0.0
0.7053107728476695 0.0212846991255746 0.0
0.6949391657294869 0.0189916832139503 0.0
0.8170292556482267 0.0369890782008915 0.0
0.8405031255346729 -0.0646238078220585 0.0
0.7462079052881725 0.0901033128618077 0.0
0.7488577299335417 0.0871822267559950 0.0
1.5782169313661178 -0.0106847745604615 0.0
1.5882365925096420 0.0055659478318216 0.0
1.5920016344152170 -0.0078268487260663 0.0
1.5929044114870945 -0.0066903907101498 0.0
0.7023102920081012 -0.0031885194406992 0.0
0.7267389215051548 0.0263064941083707 0.0
0.7068536760393856 -0.0129084786396805 0.0
0.7052629433590323 0.0188353005668301 0.0
1.6267973655606625 -0.0021517686741249 0.0
1.6299741821606757 -0.0441268615653695 0.0
1.5204424352648893 -0.0108516842635114 0.0
1.5217978036740036 -0.0141456855133227 0.0
0.7149903570183741 -0.0106182341377906 0.0
0.6383008850779581 0.0177695426655064 0.0
0.6508877296616631 -0.0198389989165278 0.0
0.6966178894545174 0.0087864839653902 0.0
0.8050266705449176 0.0301077011684891 0.0
0.7787543675523272 -0.0219980807872667 0.0
0.8092651776010584 0.0209393080416055 0.0
0.7931147405094601 -0.0274104951137134 0.0
1.4135421044909695 -0.0099472405125038 0.0
1.4382096543766028 0.0013130618619664 0.0
1.4165515374827011 -0.0013071031868832 0.0
1.4385064069801898 0.0075909697643129 0.0
1.5788734024377993 0.0014488470936785 0.0
1.5671296997389219 -0.0106876513521686 0.0
1.3125674814167776 0.0079881129325518 0.0
1.3570176009010868 -0.0282637215770428 0.0
1.4086986819354876 0.0027619783285491 0.0
1.4165245129612367 -0.0137337619870412 0.0
0.7212754830077337 -0.0170127541438667 0.0
0.6700179666712274 0.0189210441429177 0.0
0.7229716311822034 -0.0183515313996983 0.0
0.6714880458984953 0.0204980608201770 0.0
0.5582235864070797 -0.1169382281148335 0.0
0.5624667004490577 -0.1117299384561914 0.0
1.2861741104784916 0.1185968884360754 0.0
1.2853505374704406 0.1162545508801031 0.0
1.4215024178226341 -0.0158528725226485 0.0
1.3837868691421762 -0.0403073512363710 0.0
1.3874089670142729 0.0223301198730664 0.0
1.4229299841294056 -0.0029705056904596 0.0
0.7984799330378826 -0.0653322136862705 0.0
0.7978361005035884 0.0750662421019700 0.0
1.1222575907620587 -0.1565247540466051 0.0
1.1230031395291997 -0.1530312463894992 0.0
1.1255546710561544 0.2220010288256732 0.0
1.1208140411130316 0.2231207178916800 0.0
0.8464707360418235 -0.0428349471500840 0.0
0.8067785362432608 0.0488886448494833 0.0
0.8422303905274873 -0.0383234267613793 0.0
0.8123556939247126 0.0554316718984829 0.0
1.5543105910829143 -0.0100437240142043 0.0
1.5547547002660829 -0.0196933818664930 0.0
0.6850610893240811 -0.0211048525950871 0.0
0.7029591495566426 0.0035709317989963 0.0
0.6464787362350025 0.0249481219391797 0.0
0.7318056105576941 0.0422820418716044 0.0
0.6604265628011415 0.0019605992691431 0.0
0.6654302000871911 -0.0024791841433310 0.0
1.4088542206470716 -0.2093285517338578 0.0
1.4060541879011696 -0.2006419649368129 0.0
1.2697913710634763 0.2611368041852257 0.0
1.2706299544932698 0.2445958558536078 0.0
0.4785269406913962 -0.0511764698789857 0.0
0.4867916912274327 -0.0504561520163367 0.0
0.4847523024055291 0.0524484127460204 0.0
0.4933485992314876 0.0507361476912493 0.0
1.4017012208410862 -0.0057453017154990 0.0
1.4044650474192693 -0.0031816775895469 0.0
1.4253551214378848 -0.1591397871031253 0.0
1.4409376708886195 -0.1578334046844195 0.0
1.4451468712576510 0.1758919418249889 0.0
1.4256915991875019 0.1722842635957979 0.0
0.8528324738450291 0.0395419583319897 0.0
0.7436778035636756 -0.1088070553031573 0.0
0.8383573325161015 0.0512167006087208 0.0
0.7625707117461817 -0.0923393603680541 0.0
1.3974411689490525 -0.0448156300155715 0.0
1.3694371242253713 0.0515177169018232 0.0
1.3926901259856224 -0.0372371695923082 0.0
1.3725563099321700 0.0601736778360360 0.0
1.5103472453168263 0.0013039860661391 0.0
1.5089686246520357 -0.0310120986093298 0.0
0.6468081140316335 0.0021617118074023 0.0
0.6493179514642868 0.0044193886243092 0.0
1.3903063278661700 0.0799260860931167 0.0
1.4031268332335920 0.0529343352299454 0.0
1.5195863661875679 -0.0421351158497633 0.0
1.4951390283887029 0.0459739492138672 0.0
0.7004413910907701 0.0917094641170590 0.0
0.6875964850282501 0.0994070941360908 0.0
1.4629200811030352 -0.0288576367694673 0.0
1.4142851449496172 0.0354343761150871 0.0
1.4135378094331750 -0.0494220563030875 0.0
1.4627253643233034 0.0043200166536034 0.0
1.6336925938855178 0.0197993831394117 0.0
1.6470351696018535 -0.0269347351700216 0.0
0.5029737652008667 0.0001229051825893 0.0
0.5009840444776472 0.0018944732151814 0.0
1.5291322429953160 -0.0322827652500345 0.0
1.5259744606130656 0.0317847835636838 0.0
0.9374034128170140 0.2269590415800467 0.0
0.9058936157919677 -0.2232425471541910 0.0
1.5086324783988831 -0.0156951617287528 0.0
1.5056458058270192 -0.0057185406634424 0.0
1.3101861464107001 0.0049994560466459 0.0
1.3541721804638027 -0.0293124538869842 0.0
1.3233512131834291 -0.0177415370270824 0.0
1.3279625609016492 -0.0164089410513064 0.0
1.2051680865445813 -0.1199018067406260 0.0
1.2052227219944089 -0.1198972067660144 0.0
1.4937812900480505 -0.0165517297899360 0.0
1.4439622465955184 -0.0023246850691227 0.0
1.4526771739706286 -0.0305657277173763 0.0
1.4409211101498636 0.0319017313319539 0.0
1.5012759543329692 -0.0224498129124526 0.0
1.4499222586083296 0.0036406303690156 0.0
0.4291592059609460 0.0473984437925068 0.0
0.4318261150594406 0.0441677457669866 0.0
0.4248389910280133 -0.0312503128991565 0.0
0.4177395375872985 -0.0344769370345244 0.0
1.4354172777264422 -0.3301777153011964 0.0
1.4366246459713536 -0.3333116598191107 0.0
0.3968222861026143 0.0067274215690736 0.0
0.4059162666615863 -0.0109419951190179 0.0
1.5118444851191761 0.3269688203983373 0.0
1.5132146513849853 0.3215534574517590 0.0
0.5927300886067418 0.0989010833627770 0.0
0.5935633726630025 0.0977696380858668 0.0
1.5181694203315659 0.0237555737557660 0.0
1.5217872802258050 -0.0229383091183231 0.0
1.3283593165713663 -0.0150598817858080 0.0
1.3423170230355705 0.0135288571301738 0.0
1.4597739879942038 -0.3767915871787963 0.0
1.4554144820996839 -0.3726613953282152 0.0
1.3985244961388155 0.4844416210496071 0.0
1.4082130715407568 0.4816993191482705 0.0
1.5894812022020690 0.0100111634674000 0.0
1.5869502998840643 0.0111392655179746 0.0
0.4855819979552680 0.0543158878934952 0.0
0.4641364650220288 -0.0606624190933929 0.0
0.4784160853211601 0.0584287004666019 0.0
0.4743102785703311 -0.0569040188505819 0.0
0.3860264439590383 0.0281335705806091 0.0
0.4074044100951251 0.0282946999780520 0.0
0.4208276156693824 -0.0152727996077403 0.0
0.4430642194944522 -0.0165685600366821 0.0
1.2466152834540727 -0.2042519618812186 0.0
1.2640534094169646 -0.2057623233724951 0.0
1.2742646594347813 0.2789366674134414 0.0
1.2577443378926754 0.2777103507827696 0.0
1.2073114503336353 -0.2717980438519381 0.0
1.1809333457892761 0.2659455297237800 0.0
1.4514214274583455 0.0026030727035029 0.0
1.4583811064414691 0.0159754328655112 0.0
0.5095717304029131 -0.0093145870371266 0.0
0.4841468958993852 -0.0005509929436110 0.0
0.5202465326485537 0.0143847205310050 0.0
0.4980761370683206 0.0044636062208280 0.0
1.4866591942365315 -0.0218380115212563 0.0
1.4743861808362573 0.0050401518861471 0.0
1.3344745529198427 -0.0262822941429166 0.0
1.3351271364174750 -0.0234792716909767 0.0
0.8719849732662647 0.2643581329789773 0.0
0.9351750374899612 -0.2433822399030433 0.0
1.0408348870362580 0.0751499570844609 0.0
1.0475049243281873 0.0810361250206496 0.0
1.0583978041107076 -0.0982418533096499 0.0
1.0592740782454237 -0.1006543231943643 0.0
0.6353652617818619 -0.1341348501790004 0.0
0.6496159209174559 0.1422957340324490 0.0
0.2860829560042428 -0.0244484949689697 0.0
0.2891877988726356 -0.0237265555913421 0.0
0.2953879736059193 -0.0104745315022607 0.0
0.2941054387791023 -0.0104061785747183 0.0
0.3559419347715431 -0.0116324339351442 0.0
0.3556285504815557 0.0118016813797555 0.0
1.2241187596232457 0.3284836087852713 0.0
1.1734664958587824 -0.2645213870582433 0.0
0.5058902165482344 -0.0602418054846741 0.0
0.4944484331895858 0.0720750891086662 0.0
0.5052809159090597 -0.0594716552245635 0.0
0.4954831519575956 0.0738866417217270 0.0
1.4849077776952830 0.0480573587274915 0.0
1.4958461239633813 -0.0610623067108193 0.0
0.4520675016343735 0.0758339593799746 0.0
0.5224847772709911 -0.1242814263553267 0.0
0.9600749312391613 0.0623886843240084 0.0
0.9564174710790687 0.0607056170795839 0.0
0.9841057503835375 -0.0592936333006792 0.0
0.9848126734794750 -0.0593952629151915 0.0
0.8767206285258219 0.0294959211748966 0.0
0.8772275619082434 0.0387685072463158 0.0
0.5326894838601105 0.0441768021463752 0.0
0.5073318601701411 -0.0574150984993752 0.0
0.5299237393145543 0.0427326801717727 0.0
0.5059629147403868 -0.0576547850812646 0.0
1.5443584865174766 -0.0061135257236368 0.0
1.5404508131192254 -0.0032995088173263 0.0
0.4244058289006464 -0.0721482947037112 0.0
0.4743310615995258 0.0498360864024296 0.0
0.4588967033868606 0.0611188855269286 0.0
0.4443991764688016 -0.0607968928088225 0.0
1.0131547571537385 0.0395614243110411 0.0
1.0490042366577517 0.0415927098296253 0.0
1.0799236102915426 -0.0556260580131510 0.0
1.0547563323122904 -0.0592895780251402 0.0
1.3123815754755932 0.0194099985324102 0.0
1.3100603233018306 0.0268202214138170 0.0
1.3546988593170184 -0.0674059081675645 0.0
1.3689349224083955 -0.0396883155340729 0.0
1.0592540257379641 -0.1230390597587395 0.0
1.0542605407599936 -0.1296959267433326 0.0
0.5285511494945566 -0.0015190347782069 0.0
0.5301454461227708 0.0079447318246143 0.0
0.5361914098911905 0.0041687277228568 0.0
0.5201972136593954 -0.0061452338965888 0.0