# vtk DataFile Version 3.0
LucasCarvalhoTCC Results
ASCII

DATASET POLYDATA
FIELD FieldData 1
TIME 1 1 double
4.1000000000000005

POINTS 494 float
0.0 0.0 0.0
8.0 0.0 0.0
8.0 1.0 0.0
0.0 1.0 0.0
4.0 0.0 0.0
4.0 1.0 0.0
4.0 0.35 0.0
4.0 0.65 0.0
0.2010296266416496 1.0 0.0
0.3986915135488555 1.0 0.0
0.5930420631591132 1.0 0.0
0.7841367769318693 1.0 0.0
0.9720301907499852 1.0 0.0
1.156775924166146 1.0 0.0
1.33842670621592 1.0 0.0
1.517034389070868 1.0 0.0
1.69264994674003 1.0 0.0
1.865323550794866 1.0 0.0
2.035104414722059 1.0 0.0
2.202040983487818 1.0 0.0
2.366180993436638 1.0 0.0
2.527571282866703 1.0 0.0
2.686257831390245 1.0 0.0
2.842286022819771 1.0 0.0
2.995700353514032 1.0 0.0
3.146544637914273 1.0 0.0
3.294861880721452 1.0 0.0
3.440694398353104 1.0 0.0
3.58408394609007 1.0 0.0
3.725071294102791 1.0 0.0
3.863696788294668 1.0 0.0
4.136303211705004 1.0 0.0
4.274928705896546 1.0 0.0
4.415916053908917 1.0 0.0
4.55930560164552 1.0 0.0
4.7051381192768 1.0 0.0
4.853455362083593 1.0 0.0
5.004299646483437 1.0 0.0
5.157713977177285 1.0 0.0
5.313742168606385 1.0 0.0
5.472428717129489 1.0 0.0
5.6338190065591 1.0 0.0
5.797959016507455 1.0 0.0
5.96489558527273 1.0 0.0
6.134676449200184 1.0 0.0
6.307350053255487 1.0 0.0
6.482965610925135 1.0 0.0
6.661573293780584 1.0 0.0
6.843224075830887 1.0 0.0
7.027969809247587 1.0 0.0
7.215863223066262 1.0 0.0
7.4069579368396 1.0 0.0
7.601308486450315 1.0 0.0
7.798970373357896 1.0 0.0
8.0 0.7999999999999996 0.0
8.0 0.6000000000013874 0.0
8.0 0.4000000000016649 0.0
8.0 0.2000000000008324 0.0
7.798970373357898 0.0 0.0
7.601308486450317 0.0 0.0
7.406957936839601 0.0 0.0
7.215863223066265 0.0 0.0
7.02796980924759 0.0 0.0
6.843224075830888 0.0 0.0
6.661573293780592 0.0 0.0
6.482965610925139 0.0 0.0
6.307350053255492 0.0 0.0
6.134676449200188 0.0 0.0
5.964895585272735 0.0 0.0
5.797959016507459 0.0 0.0
5.633819006559103 0.0 0.0
5.472428717129493 0.0 0.0
5.313742168606389 0.0 0.0
5.157713977177288 0.0 0.0
5.004299646483441 0.0 0.0
4.853455362083597 0.0 0.0
4.705138119276803 0.0 0.0
4.559305601645523 0.0 0.0
4.415916053908919 0.0 0.0
4.274928705896549 0.0 0.0
4.136303211705007 0.0 0.0
3.863696788294383 0.0 0.0
3.725071294102209 0.0 0.0
3.584083946089184 0.0 0.0
3.440694398352564 0.0 0.0
3.29486188072223 0.0 0.0
3.146544637916415 0.0 0.0
2.995700353517581 0.0 0.0
2.842286022824779 0.0 0.0
2.68625783139676 0.0 0.0
2.527571282874774 0.0 0.0
2.366180993446318 0.0 0.0
2.202040983499156 0.0 0.0
2.035104414735112 0.0 0.0
1.865323550807426 0.0 0.0
1.692649946751479 0.0 0.0
1.517034389081164 0.0 0.0
1.338426706225015 0.0 0.0
1.156775924174005 0.0 0.0
0.9720301907565596 0.0 0.0
0.784136776937109 0.0 0.0
0.5930420631629705 0.0 0.0
0.3986915135514271 0.0 0.0
0.2010296266429896 0.0 0.0
0.0 0.199999999999558 0.0
0.0 0.3999999999989746 0.0
0.0 0.5999999999989464 0.0
0.0 0.7999999999994731 0.0
4.065082561150232 0.3648546699507293 0.0
4.117274722996153 0.4064765305061043 0.0
4.146239186965635 0.4666218605127571 0.0
4.146239186588658 0.5333781411388893 0.0
4.117274722147235 0.5935234705584039 0.0
4.065082560620447 0.6351453303044018 0.0
3.934917439190226 0.6351453302132268 0.0
3.882725277520537 0.5935234701418048 0.0
3.853760813071839 0.5333781396514286 0.0
3.853760813263242 0.4666218595099774 0.0
3.882725277782338 0.4064765295299076 0.0
3.934917439246251 0.3648546697597932 0.0
3.348071016817302 0.5037366844559412 0.0
4.65817771841185 0.4813089492125461 0.0
5.148432135339639 0.5000000000000013 0.0
2.851567863014233 0.5000000000000465 0.0
4.406326506211093 0.3072680842959042 0.0
3.575604791543614 0.6706702532911111 0.0
4.424395205595821 0.6706702556565258 0.0
3.593673497058965 0.3072680820819204 0.0
5.648652107845511 0.5000000000000006 0.0
2.351347890458042 0.4999999999998563 0.0
1.851146954963573 0.4999999999998219 0.0
6.148853043290459 0.4999999999999989 0.0
6.65089532386231 0.5241211434250735 0.0
1.349104674975677 0.4758788558671475 0.0
7.150713697794147 0.4858064203922342 0.0
0.8492863006035025 0.4858064203396458 0.0
4.216343713145164 0.2287135668575249 0.0
3.7836562881134 0.7712864338025908 0.0
4.346988371127422 0.5000000019594898 0.0
4.213775907987267 0.7756803165215952 0.0
3.653011628408684 0.4999999990051173 0.0
3.786224091202296 0.224319683220954 0.0
7.572712389010231 0.5763628491757339 0.0
0.4272876103144935 0.5763628498169726 0.0
4.881741322202974 0.3185523670790996 0.0
3.118258676783759 0.6814476337404539 0.0
3.126854924363118 0.2792890251323842 0.0
4.873145074373641 0.7207109754187309 0.0
5.398381996912613 0.291094588046412 0.0
5.396092528392672 0.7230702977293901 0.0
2.603907471650227 0.7230702981371074 0.0
2.601618001742297 0.2910945873520305 0.0
4.065645388412852 0.1903894420877926 0.0
3.934354612281609 0.8096105573695707 0.0
4.268393145079946 0.6292513280674802 0.0
3.731606853978594 0.3707486723017213 0.0
4.265062587797852 0.3723525870906427 0.0
3.734937412407246 0.6276474138958879 0.0
5.89991820844496 0.720584760457478 0.0
5.899661142431216 0.2940789491313893 0.0
2.100338856207466 0.7059210507243335 0.0
2.100081790085733 0.2794152396968363 0.0
4.648216390708278 0.2460745758417431 0.0
3.350865525112209 0.7519279174007294 0.0
3.351783614314077 0.2460745727859678 0.0
4.649134469923633 0.7519279206208029 0.0
6.386000070083336 0.2800687217561524 0.0
6.399946740387701 0.7091877900019353 0.0
1.613999929083956 0.7199312783619409 0.0
1.600053258667474 0.2908122092889953 0.0
1.099018086220021 0.3101534564461602 0.0
1.099018086220183 0.6898465435530818 0.0
6.900981912171285 0.3101534566801202 0.0
6.900981912171287 0.689846543319878 0.0
3.934891793257755 0.2336799984692873 0.0
4.065108206439434 0.7663200008196746 0.0
5.133077706310633 0.254681732561614 0.0
5.131620328745691 0.7509194919064351 0.0
2.866922291796803 0.7453182673725732 0.0
2.868379670398546 0.2490805081265555 0.0
0.5973224633027379 0.3123440263675117 0.0
7.402677535116692 0.3123440263206204 0.0
7.70928508668797 0.2984218335093966 0.0
0.2907149122204558 0.2984218350042115 0.0
2.359042531710287 0.2526358364218651 0.0
2.362552667743482 0.7498876177132479 0.0
5.640957467742433 0.2526358368965552 0.0
5.637447332034727 0.7498876177447886 0.0
7.330771635020911 0.7204300868765696 0.0
0.6692283641678903 0.7204300870263377 0.0
6.141991504218947 0.7500064293114952 0.0
6.143214654121697 0.2541610692540839 0.0
1.858008494097047 0.2499935706645152 0.0
1.856785344746094 0.7458389307817799 0.0
1.360037479834015 0.7503851535261052 0.0
1.363297687800482 0.2332108063209677 0.0
6.636702311691573 0.7667891933666813 0.0
6.639962519949044 0.2496148464378299 0.0
7.14328150074831 0.2292696686424185 0.0
0.8567184978980538 0.2292696684503961 0.0
4.845173759433459 0.5000000012080886 0.0
3.15482623877425 0.4999999993865263 0.0
3.514470413944982 0.5755907957035395 0.0
4.485529584365944 0.5755907996488695 0.0
4.350214515329574 0.8947484376274254 0.0
3.64978548377064 0.1052515623441257 0.0
4.356280753270322 0.1397878825788729 0.0
3.643719248073251 0.8602121180766233 0.0
4.157657982820168 0.3023031440803671 0.0
3.842342017851872 0.6976968563131654 0.0
4.149794964153143 0.6947625877680722 0.0
3.850205035403508 0.3052374120341299 0.0
4.252863769441745 0.5000000013253333 0.0
3.747136230269581 0.4999999993774377 0.0
2.66150837620265 0.4835883053501762 0.0
5.338491622258749 0.4835883052760253 0.0
7.732076714471282 0.7613785341653052 0.0
0.267923285219987 0.7613785345749642 0.0
3.482582425594127 0.3988584940714734 0.0
4.517417574829351 0.3988584973195787 0.0
7.120961454429095 0.7969630876933931 0.0
0.8790385446795201 0.7969630878928393 0.0
4.524178509919695 0.1937066442020419 0.0
3.472973035782958 0.803602443762734 0.0
4.527026959328886 0.8036024455277256 0.0
3.475821495314308 0.1937066425220846 0.0
5.834485749168302 0.4775259269822466 0.0
2.16551424934095 0.5224740729963462 0.0
4.803832126993392 0.8343163881584211 0.0
3.196167871756218 0.1656836120733276 0.0
3.196167870279283 0.834316388182051 0.0
4.803832130306974 0.1656836112805605 0.0
1.646902821176459 0.5088844228822333 0.0
6.35309717778631 0.4911155766888507 0.0
4.128745436683365 0.8608937921704661 0.0
3.871254562700506 0.1391062074145501 0.0
7.783519314041498 0.4824599318584197 0.0
0.2164806854160975 0.4824599323519634 0.0
3.981228286637499 0.1341601386487245 0.0
4.018771713398118 0.8658398609794804 0.0
4.757705393330306 0.6277793253200102 0.0
3.245404476813698 0.3720431195654205 0.0
3.262406961538709 0.609092082228193 0.0
4.738552632749474 0.3854106153034425 0.0
4.980576921401999 0.1828043249223437 0.0
3.019423077460087 0.8171956749482756 0.0
4.975386875116307 0.8288560892267683 0.0
3.024613123995747 0.1711439108946455 0.0
7.537862127958827 0.7914398748884439 0.0
0.46213787149577 0.7914398749623154 0.0
4.150965283491015 0.1232311208167031 0.0
3.849034718225983 0.8767688792466098 0.0
0.6330166515036239 0.5212993800799176 0.0
7.366983347335347 0.5212993798709434 0.0
5.001451172914062 0.4591396125040952 0.0
2.998548825585332 0.5408603877155073 0.0
5.250532135494552 0.1623854812497458 0.0
5.24999687257574 0.8404382486850067 0.0
2.749794930508214 0.8396380739052673 0.0
2.749676059914328 0.161585306286623 0.0
1.150631951549359 0.5017906253149568 0.0
6.85747267660715 0.5137706215776152 0.0
2.938770240933895 0.3859183074771494 0.0
5.061229757952985 0.6140816927005173 0.0
5.521883200863776 0.8371838481144578 0.0
5.520780843451154 0.1567733764659754 0.0
2.479219155991939 0.1567733759623464 0.0
2.478116798894765 0.8371838481096507 0.0
2.208224060227917 0.1725929992863016 0.0
2.214655190115911 0.821187355218689 0.0
5.791775938918927 0.8274070011383262 0.0
5.785558009721889 0.1789659155514431 0.0
5.243140500145841 0.3651007420679131 0.0
5.247758683472709 0.6318228659349833 0.0
2.748336099792684 0.6332079670712092 0.0
2.766145970608876 0.3583112578457802 0.0
2.500794992947401 0.4517155340697119 0.0
5.499205006433885 0.4517155344186723 0.0
3.472119223331378 0.69283875816516 0.0
4.527880773131323 0.6928387614752662 0.0
2.445947440949104 0.6396216022327238 0.0
5.554052558509333 0.6396216019605415 0.0
[...]
POINT_DATA 494

VECTORS Velocity float
0.0000000000000000 0.0000000000000000 0.0
0.8199005691372877 -0.1380536867189454 0.0
0.0000000000000000 0.0000000000000000 0.0
0.0000000000000000 0.0000000000000000 0.0
0.0000000000000000 0.0000000000000000 0.0
0.0000000000000000 0.0000000000000000 0.0
0.0000000000000000 0.0000000000000000 0.0
0.0000000000000000 0.0000000000000000 0.0
0.0000000000000000 0.0000000000000000 0.0
0.0000000000000000 0.0000000000000000 0.0
0.0000000000000000 0.0000000000000000 0.0
0.0000000000000000 0.0000000000000000 0.0
0.0000000000000000 0.0000000000000000 0.0
0.0000000000000000 0.0000000000000000 0.0
0.0000000000000000 0.0000000000000000 0.0
0.0000000000000000 0.0000000000000000 0.0
0.0000000000000000 0.0000000000000000 0.0
0.0000000000000000 0.0000000000000000 0.0
0.0000000000000000 0.0000000000000000 0.0
0.0000000000000000 0.0000000000000000 0.0
0.0000000000000000 0.0000000000000000 0.0
0.0000000000000000 0.0000000000000000 0.0
0.0000000000000000 0.0000000000000000 0.0
0.0000000000000000 0.0000000000000000 0.0
0.0000000000000000 0.0000000000000000 0.0
0.0000000000000000 0.0000000000000000 0.0
0.0000000000000000 0.0000000000000000 0.0
0.0000000000000000 0.0000000000000000 0.0
0.0000000000000000 0.0000000000000000 0.0
0.0000000000000000 0.0000000000000000 0.0
0.0000000000000000 0.0000000000000000 0.0
0.0000000000000000 0.0000000000000000 0.0
0.0000000000000000 0.0000000000000000 0.0
0.0000000000000000 0.0000000000000000 0.0
0.0000000000000000 0.0000000000000000 0.0
0.0000000000000000 0.0000000000000000 0.0
0.0000000000000000 0.0000000000000000 0.0
0.0000000000000000 0.0000000000000000 0.0
0.0000000000000000 0.0000000000000000 0.0
0.0000000000000000 0.0000000000000000 0.0
0.0000000000000000 0.0000000000000000 0.0
0.0000000000000000 0.0000000000000000 0.0
0.0000000000000000 0.0000000000000000 0.0
0.0000000000000000 0.0000000000000000 0.0
0.0000000000000000 0.0000000000000000 0.0
0.0000000000000000 0.0000000000000000 0.0
0.0000000000000000 0.0000000000000000 0.0
0.0000000000000000 0.0000000000000000 0.0
0.0000000000000000 0.0000000000000000 0.0
0.0000000000000000 0.0000000000000000 0.0
0.0000000000000000 0.0000000000000000 0.0
0.0000000000000000 0.0000000000000000 0.0
0.0000000000000000 0.0000000000000000 0.0
0.0000000000000000 0.0000000000000000 0.0
1.0770874525003922 0.5444334147187060 0.0
0.9956025586724432 0.1379678559423823 0.0
0.9602263103116053 -0.0877147509350549 0.0
1.0633875937519559 -0.4538832615462366 0.0
0.0000000000000000 0.0000000000000000 0.0
0.0000000000000000 0.0000000000000000 0.0
0.0000000000000000 0.0000000000000000 0.0
0.0000000000000000 0.0000000000000000 0.0
0.0000000000000000 0.0000000000000000 0.0
0.0000000000000000 0.0000000000000000 0.0
0.0000000000000000 0.0000000000000000 0.0
0.0000000000000000 0.0000000000000000 0.0
0.0000000000000000 0.0000000000000000 0.0
0.0000000000000000 0.0000000000000000 0.0
0.0000000000000000 0.0000000000000000 0.0
0.0000000000000000 0.0000000000000000 0.0
0.0000000000000000 0.0000000000000000 0.0
0.0000000000000000 0.0000000000000000 0.0
0.0000000000000000 0.0000000000000000 0.0
0.0000000000000000 0.0000000000000000 0.0
0.0000000000000000 0.0000000000000000 0.0
0.0000000000000000 0.0000000000000000 0.0
0.0000000000000000 0.0000000000000000 0.0
0.0000000000000000 0.0000000000000000 0.0
0.0000000000000000 0.0000000000000000 0.0
0.0000000000000000 0.0000000000000000 0.0
0.0000000000000000 0.0000000000000000 0.0
0.0000000000000000 0.0000000000000000 0.0
0.0000000000000000 0.0000000000000000 0.0
0.0000000000000000 0.0000000000000000 0.0
0.0000000000000000 0.0000000000000000 0.0
0.0000000000000000 0.0000000000000000 0.0
0.0000000000000000 0.0000000000000000 0.0
0.0000000000000000 0.0000000000000000 0.0
0.0000000000000000 0.0000000000000000 0.0
0.0000000000000000 0.0000000000000000 0.0
0.0000000000000000 0.0000000000000000 0.0
0.0000000000000000 0.0000000000000000 0.0
0.0000000000000000 0.0000000000000000 0.0
0.0000000000000000 0.0000000000000000 0.0
0.0000000000000000 0.0000000000000000 0.0
0.0000000000000000 0.0000000000000000 0.0
0.0000000000000000 0.0000000000000000 0.0
0.0000000000000000 0.0000000000000000 0.0
0.0000000000000000 0.0000000000000000 0.0
0.0000000000000000 0.0000000000000000 0.0
0.0000000000000000 0.0000000000000000 0.0
0.0000000000000000 0.0000000000000000 0.0
0.0000000000000000 0.0000000000000000 0.0
0.0000000000000000 0.0000000000000000 0.0
1.0000000000000000 0.0000000000000000 0.0
1.0000000000000000 0.0000000000000000 0.0
1.0000000000000000 0.0000000000000000 0.0
1.0000000000000000 0.0000000000000000 0.0
0.0000000000000000 0.0000000000000000 0.0
0.0000000000000000 0.0000000000000000 0.0
0.0000000000000000 0.0000000000000000 0.0
0.0000000000000000 0.0000000000000000 0.0
0.0000000000000000 0.0000000000000000 0.0
0.0000000000000000 0.0000000000000000 0.0
0.0000000000000000 0.0000000000000000 0.0
0.0000000000000000 0.0000000000000000 0.0
0.0000000000000000 0.0000000000000000 0.0
0.0000000000000000 0.0000000000000000 0.0
0.0000000000000000 0.0000000000000000 0.0
0.0000000000000000 0.0000000000000000 0.0
1.6057900468900779 -0.0148552852466943 0.0
1.6079486274617889 0.0124505842938108 0.0
1.6379898665172010 -0.0119574535237488 0.0
1.6350757872463839 -0.0166761925834539 0.0
1.3413848485935078 0.0851194247451514 0.0
1.3671670942206586 0.0643969050712789 0.0
1.4119845121929062 -0.1093459767679383 0.0
1.3876835046851703 -0.1337601002629231 0.0
1.6119869963185696 0.0002592601768567 0.0
1.6114718918453992 -0.0091067775693813 0.0
1.5577954184577638 0.0059517012144417 0.0
1.5569729759902524 -0.0008261218511073 0.0
1.5732062111803549 -0.0318012488959630 0.0
1.5732323272691784 0.0168795448913207 0.0
1.6564043162278366 0.0099752458366136 0.0
1.6530136452993365 -0.0173164611538376 0.0
1.3185362661932405 0.3227145399605811 0.0
1.3180624005010924 0.3158401668219016 0.0
1.3722574386980637 0.0238166367279070 0.0
1.3512777697501921 -0.2362693876236553 0.0
1.3722186233271567 0.0180175892404885 0.0
1.3507307990169932 -0.2413139713144259 0.0
1.5492233641145092 0.0140881638770499 0.0
1.5330365001895361 -0.0338561100491013 0.0
1.3407442097769071 0.0034982400789304 0.0
1.3436490074570837 0.0038458321222578 0.0
1.2623136554457817 0.0033436130097266 0.0
1.2557020987094760 0.0006689854097762 0.0
1.3045831672707082 -0.0067411261247094 0.0
1.2114806781549303 -0.0148232626851105 0.0
1.1811616204935835 0.0084404480624246 0.0
1.3274309614832915 0.0035411161392100 0.0
1.4606744841559629 0.1370981135719824 0.0
1.4610514415637657 0.1349302052693198 0.0
1.4394702192817350 -0.2781019187286197 0.0
1.4454206344960698 -0.2836113886149901 0.0
1.4430082349562408 0.3623337122008198 0.0
1.4384331093321845 0.3589805339256308 0.0
1.1802048472091717 -0.0288762915894218 0.0
1.3027349690712906 -0.0079767416911759 0.0
1.2941384543567547 -0.0178984044187313 0.0
1.1846916507235445 -0.0317928198063749 0.0
1.0755246995883849 -0.0679608410110495 0.0
1.0824126597112298 -0.0579872544089079 0.0
1.0923638100719577 0.0432813564935539 0.0
1.1034077787126129 0.0290056007345462 0.0
1.2560217696154723 0.0043718930884288 0.0
1.2398081845299160 -0.0206000832685301 0.0
1.2448018353557544 0.0198343451427632 0.0
1.2500670790719526 -0.0010678930088957 0.0
1.4407406307553858 -0.0315753297724736 0.0
1.3203819686822278 0.0525817047911548 0.0
1.4459173139271932 0.0342767470337156 0.0
1.3119762716257601 -0.0463315761386797 0.0
1.5780160349655878 -0.2304263874722346 0.0
1.5777261150083597 -0.2296613837923991 0.0
1.1554359808992218 -0.0548072548977355 0.0
1.1799383078423500 0.0589986151135535 0.0
1.1428737766356871 -0.0574400591918933 0.0
1.1883558859161114 0.0479631950038718 0.0
1.4286128983287529 0.0325981052962127 0.0
1.4397267052841978 -0.0300975577981040 0.0
1.2951573219024652 -0.1607854207312896 0.0
1.2810082511097638 0.1936473920032017 0.0
1.1906605475295642 0.0494863839960385 0.0
1.1381724791211532 -0.0053932578160513 0.0
1.1867784591116413 -0.0376225869259163 0.0
1.1537204554202243 0.0306458826485878 0.0
1.2894558059747148 0.0085804931305825 0.0
1.2969179826076129 -0.0147418702330579 0.0
1.1555273162405317 0.0378433662034785 0.0
1.2189664441379835 -0.0664040797323310 0.0
1.1574643032747849 0.0411507407231407 0.0
1.2167578642778127 -0.0648278470136955 0.0
1.1689299338953800 0.0696708600437035 0.0
1.1454340493430413 -0.0396348806927024 0.0
1.0984784179755989 -0.0578097977523228 0.0
1.2061543335721800 0.0510284312125547 0.0
1.1027926547546383 -0.0234230793409571 0.0
1.0961881069747210 0.0189943932104020 0.0
1.6156984150764975 0.0081962973897955 0.0
1.6183403203806439 -0.0002360815249395 0.0
1.4921764163402111 0.0309614433647487 0.0
1.5135976274049163 -0.0679879750765574 0.0
0.4711111127155684 -0.0144983549955052 0.0
0.4525858662520665 -0.0165651309991114 0.0
0.5690364015983608 0.1073289827872698 0.0
0.5887181256529659 0.1064020907330083 0.0
1.4648889202783617 0.4491194048272452 0.0
1.4601823650405248 0.4457071777706347 0.0
1.5451799806543329 -0.3618730562631072 0.0
1.5473116299833627 -0.3636568329560428 0.0
0.9924277357892235 0.0351924061749743 0.0
0.9932075214688423 0.0452790520945693 0.0
1.6130339963449170 0.0324473761913908 0.0
1.6050245212660339 -0.0438431770134037 0.0
1.1585818215349020 0.1959125315191882 0.0
1.1963297493704073 -0.2744751399512264 0.0
1.5360262298752891 -0.0545491485389625 0.0
1.5086019732454887 0.0095128607463794 0.0
0.7367242263881706 -0.0068050774575111 0.0
0.7585981233981981 0.0053462573657641 0.0
0.8906928116951105 -0.0169358311803847 0.0
0.9078688874319597 -0.0201032627589108 0.0
0.9232776248955293 0.0050580999863995 0.0
0.9082782793482016 0.0046723793761480 0.0
1.5787043732623831 -0.0265304223953721 0.0
1.5787419958645974 -0.0570584728480051 0.0
0.6635444139803157 -0.0832852486153648 0.0
0.6610264572257882 -0.0839746741005943 0.0
0.7112494047267436 0.0635927961172315 0.0
0.7091254858134516 0.0623409765650505 0.0
1.4963919008217468 0.0497657692217412 0.0
1.4970020464052487 0.0321080517521566 0.0
0.8988385358153025 -0.1260528348432496 0.0
0.8993782477424191 -0.1293928025703140 0.0
1.3578047855210609 0.0009421202994937 0.0
1.2764954826011208 0.0145451121397080 0.0
1.0039374185266843 -0.0949221244492641 0.0
1.0042765685604305 -0.0947297700712840 0.0
1.5185105940004655 -0.0265219548610222 0.0
1.5227339452227653 -0.0287839540115630 0.0
1.4887323335269023 0.0364831925556985 0.0
1.4913879202174116 0.0436450049228023 0.0
0.7492230045088497 -0.0086633728862294 0.0
0.7532623645186682 -0.0068741777377578 0.0
0.7036741494561468 0.0220555505965338 0.0
0.6927705866522632 0.0201105779753582 0.0
0.8169448814778824 0.0369254857570137 0.0
0.8406265836493428 -0.0645403096829455 0.0
0.7452523203280164 0.0913040697195706 0.0
0.7479247134657685 0.0883167879855836 0.0
1.5783416606223644 -0.0105720426483027 0.0
1.5883497495229282 0.0054378918680000 0.0
1.5946003069159120 -0.0079487669550955 0.0
1.5956984250644664 -0.0054395786352836 0.0
0.7017503742010911 -0.0034416454787415 0.0
0.7263629779754542 0.0265839111486471 0.0
0.7058405446248445 -0.0128554257653439 0.0
0.7052267658461494 0.0194469235539984 0.0
1.6270649697818058 -0.0025979185243705 0.0
1.6301508080996612 -0.0436738556799209 0.0
1.5219106976407912 -0.0085786218914498 0.0
1.5234369933214602 -0.0132295351635085 0.0
0.7146521422419355 -0.0107051083700632 0.0
0.6380886963170985 0.0177400209178514 0.0
0.6511906131802202 -0.0201014347278658 0.0
0.6957058606704456 0.0086601550932503 0.0
0.8045931372119195 0.0296182953666764 0.0
0.7785260962290426 -0.0225400387283675 0.0
0.8086942234735449 0.0208517598586669 0.0
0.7931413694734740 -0.0275564935377740 0.0
1.4136695162296247 -0.0105864562146156 0.0
1.4386176154826247 0.0016693306863146 0.0
1.4162807401998334 -0.0008959512252551 0.0
1.4393685674515806 0.0090847768534248 0.0
1.5796268844475629 0.0008531101246859 0.0
1.5675695639736893 -0.0109476243377493 0.0
1.3112500557014874 0.0063687633295905 0.0
1.3573520087872304 -0.0269086155086553 0.0
1.4082532909934979 0.0020714199286836 0.0
1.4166059755155000 -0.0140984990503460 0.0
0.7203479486109511 -0.0170535058734088 0.0
0.6704602924536989 0.0187478961348053 0.0
0.7224286228736003 -0.0182826496074895 0.0
0.6716204481651437 0.0204819451864727 0.0
0.5555613946544866 -0.1179500529858325 0.0
0.5600315843179081 -0.1126297030096900 0.0
1.2858604386263632 0.1195649454560096 0.0
1.2850859346092016 0.1172034947211816 0.0
1.4216998069830802 -0.0170180284784131 0.0
1.3839846364585568 -0.0414846823755759 0.0
1.3873237452093998 0.0221197742427772 0.0
1.4234278174872534 -0.0032632972913685 0.0
0.7985061989271317 -0.0654338853723504 0.0
0.7976648641334401 0.0751729258739036 0.0
1.1254476722139659 -0.1594108659871302 0.0
1.1264667730223126 -0.1565556924712743 0.0
1.1275452166049902 0.2266366313351582 0.0
1.1227756460817928 0.2273252204197699 0.0
0.8467729385768099 -0.0429419017717974 0.0
0.8061950411939889 0.0487680116822016 0.0
0.8426804758738469 -0.0380606748626723 0.0
0.8117063604613300 0.0557749465554565 0.0
1.5548116180804401 -0.0100761942253215 0.0
1.5553727578252821 -0.0203241464823430 0.0
0.6852804349474262 -0.0212216744312562 0.0
0.7025144563334148 0.0035259115795552 0.0
0.6458888560881690 0.0250519177493641 0.0
0.7321790728306915 0.0423897577974158 0.0
0.6600912475892873 0.0020203192602728 0.0
0.6652770534131031 -0.0025461124753820 0.0
1.4080998609908071 -0.2135297771312412 0.0
1.4057390528938538 -0.2039248662684515 0.0
1.2660860532054077 0.2654263406861499 0.0
1.2673887725947517 0.2481278828296149 0.0
0.4737478978191674 -0.0511846336937869 0.0
0.4827418662336095 -0.0505058556921587 0.0
0.4793786585414911 0.0526281132714196 0.0
0.4889094103810133 0.0509782435230765 0.0
1.4014215053697039 -0.0056907066953924 0.0
1.4038494672553765 -0.0032318780582884 0.0
1.4330039703666333 -0.1617258518508460 0.0
1.4495078827636196 -0.1607893784586630 0.0
1.4497928702306051 0.1801811990556830 0.0
1.4296189245338655 0.1757351310874525 0.0
0.8532659417159728 0.0395174182104622 0.0
0.7429560321974502 -0.1088326690700262 0.0
0.8381692115680733 0.0515800102864426 0.0
0.7625435919282229 -0.0920123717048898 0.0
1.3979989918416400 -0.0449318303175039 0.0
1.3691409980189710 0.0515437080030288 0.0
1.3932613868702612 -0.0365846694122603 0.0
1.3721540275142288 0.0609495811162586 0.0
1.5104331968996412 0.0022955319752430 0.0
1.5090122785607649 -0.0312791293067452 0.0
0.6468577081637793 0.0023253217193391 0.0
0.6492089975669306 0.0042411682341788 0.0
1.3903214790626335 0.0806859070188788 0.0
1.4036873429379086 0.0528241318928674 0.0
1.5196593000585850 -0.0423620497520941 0.0
1.4950256114869220 0.0462365315037823 0.0
0.6972480950895167 0.0934300234445623 0.0
0.6841454009493112 0.1013544750717506 0.0
1.4633793972913121 -0.0289532488342726 0.0
1.4140310528134676 0.0354260103617910 0.0
1.4130210203497358 -0.0491653570325339 0.0
1.4633414617241345 0.0045054783960406 0.0
1.6340794964757022 0.0204892955139175 0.0
1.6473933642121799 -0.0277031888595751 0.0
0.5026604103731308 -0.0000024728002010 0.0
0.5006195245804896 0.0019998612060053 0.0
1.5293572514592515 -0.0329504359892218 0.0
1.5259917281274189 0.0323550578663191 0.0
0.9373829675595727 0.2269709160366901 0.0
0.9059751326202108 -0.2232066485019784 0.0
1.5221369076900586 -0.0162875422986400 0.0
1.5180041922065051 -0.0064817079828509 0.0
1.3076058812703446 0.0035366205882048 0.0
1.3531640773138998 -0.0281405743913630 0.0
1.3232661521072426 -0.0192197228006798 0.0
1.3283905153839226 -0.0169409789386151 0.0
1.2053217569385686 -0.1211899821938987 0.0
1.2053814632032960 -0.1211046313132750 0.0
1.4997629959724013 -0.0148309204130658 0.0
1.4491544786832888 -0.0063699123822872 0.0
1.4527141460034398 -0.0305627838279362 0.0
1.4407279549558152 0.0318978936557914 0.0
1.5071240241634354 -0.0212361673475629 0.0
1.4546031172553540 0.0002188511468196 0.0
0.4283741829721587 0.0468980699206996 0.0
0.4310746060907323 0.0439117264106210 0.0
0.4241214222818297 -0.0308314808609508 0.0
0.4169439968002233 -0.0338497177336290 0.0
1.4352281184987108 -0.3335472474230378 0.0
1.4364465077435513 -0.3369910359557723 0.0
0.3968205709906359 0.0067367767096308 0.0
0.4060467723507202 -0.0109712093640383 0.0
1.5111976188136265 0.3300155271589174 0.0
1.5125810384444609 0.3244430152249253 0.0
0.5930105627620899 0.0993100438455756 0.0
0.5938043268040399 0.0981527368111181 0.0
1.5182446529480589 0.0239819180904680 0.0
1.5221055081778898 -0.0232355522348972 0.0
1.3284914188822459 -0.0151957075259894 0.0
1.3431761319904936 0.0129267678638135 0.0
1.4615721112209505 -0.3838938358107187 0.0
1.4570648780683442 -0.3787807478078036 0.0
1.3991300963259523 0.4901560093926424 0.0
1.4088579810724855 0.4879298428817305 0.0
1.5923528720931044 0.0113769420453261 0.0
1.5892332370350279 0.0135965205338974 0.0
0.4854969628913787 0.0540617738066852 0.0
0.4636810821585645 -0.0607774981678068 0.0
0.4780471326822375 0.0583136594801447 0.0
0.4741871594769932 -0.0569016545779203 0.0
0.3813768724873463 0.0284283742948224 0.0
0.4032662103342747 0.0285332186978306 0.0
0.4151936417531344 -0.0154083315561240 0.0
0.4381766904124341 -0.0166438543550089 0.0
1.2549076010574509 -0.2069588727283986 0.0
1.2728491616944513 -0.2093275079352347 0.0
1.2809537074123241 0.2843907683542113 0.0
1.2640779936896225 0.2823443628092657 0.0
1.2074196672211173 -0.2716574807277292 0.0
1.1809229863686481 0.2659709453575927 0.0
1.4520376109855750 0.0018641806772465 0.0
1.4591338655438053 0.0167317000198655 0.0
0.5093562450049594 -0.0093757289846769 0.0
0.4833423906387243 -0.0005573381868389 0.0
0.5207060469270814 0.0145083910004103 0.0
0.4979254536254573 0.0044968127100302 0.0
1.4874502089816883 -0.0230789493608054 0.0
1.4748411140638018 0.0048125401991320 0.0
1.3354935307251956 -0.0267187424562098 0.0
1.3356522216782787 -0.0235694910651596 0.0
0.8718847810975432 0.2643893164088271 0.0
0.9351821793286078 -0.2433838096571859 0.0
1.0383949585952397 0.0724840506549614 0.0
1.0462159811376159 0.0785937733817912 0.0
1.0549221529629444 -0.0952008867800354 0.0
1.0571344351542267 -0.0980682803143568 0.0
0.6354577447981148 -0.1341634188731175 0.0
0.6495843412550053 0.1423387516731104 0.0
0.2843702724850642 -0.0238191341977988 0.0
0.2878173968730621 -0.0232685382471349 0.0
0.2941441269121454 -0.0109474837144552 0.0
0.2925612204055101 -0.0109915791711888 0.0
0.3558086299729497 -0.0115875120973265 0.0
0.3553970589715132 0.0117515648863349 0.0
1.2240229999416292 0.3286405572032624 0.0
1.1734852396403044 -0.2645024985394155 0.0
0.5060063058768539 -0.0602732434212075 0.0
0.4940824275409246 0.0720424103457364 0.0
0.5057432682901593 -0.0594969031491349 0.0
0.4948366456366728 0.0739030914513870 0.0
1.4849204377046359 0.0478898722237433 0.0
1.4961551131561863 -0.0609025958682673 0.0
0.4519778660785551 0.0758226762500220 0.0
0.5224939618275543 -0.1242442209850891 0.0
0.9607250364666774 0.0642922514921567 0.0
0.9571069247595385 0.0625724649300756 0.0
0.9857072894108238 -0.0612750251494790 0.0
0.9864840079763187 -0.0615404348087624 0.0
0.8781285742312397 0.0309530710875035 0.0
0.8786813354910797 0.0398799092884699 0.0
0.5327271551401378 0.0441237335375197 0.0
0.5068842700498327 -0.0573306546701616 0.0
0.5300287297141165 0.0425587682058661 0.0
0.5053674410004677 -0.0576655374595778 0.0
1.5448335952748593 -0.0062472383574738 0.0
1.5403875237173275 -0.0034242684770969 0.0
0.4239036536006108 -0.0720709134075433 0.0
0.4745871106475712 0.0498710074008571 0.0
0.4585787683212293 0.0611682773200498 0.0
0.4445285669161903 -0.0607808942824096 0.0
1.0056849971682500 0.0415241066465480 0.0
1.0428575750285229 0.0429551612768824 0.0
1.0741686412239777 -0.0564237473758249 0.0
1.0474025640283451 -0.0606504833091874 0.0
1.3115865345282809 0.0215871400703209 0.0
1.3098857488077846 0.0282530203633128 0.0
1.3542027413524931 -0.0674984616638185 0.0
1.3691906835287591 -0.0391479968066899 0.0
1.0537789681017267 -0.1258871296324716 0.0
1.0479769606079443 -0.1331326100195642 0.0
0.5283142777395480 -0.0013302127370370 0.0
0.5302532852169136 0.0081381429507019 0.0
0.5364116965421755 0.0041243756269454 0.0
0.5197100493264486 -0.0061857018901705 0.0