# vtk DataFile Version 3.0
LucasCarvalhoTCC Results
ASCII

DATASET POLYDATA
FIELD FieldData 1
TIME 1 1 double
2.5

POINTS 494 float
0.0 0.0 0.0
8.0 0.0 0.0
8.0 1.0 0.0
0.0 1.0 0.0
4.0 0.0 0.0
4.0 1.0 0.0
4.0 0.35 0.0
4.0 0.65 0.0
0.2010296266416496 1.0 0.0
0.3986915135488555 1.0 0.0
0.5930420631591132 1.0 0.0
0.7841367769318693 1.0 0.0
0.9720301907499852 1.0 0.0
1.156775924166146 1.0 0.0
1.33842670621592 1.0 0.0
1.517034389070868 1.0 0.0
1.69264994674003 1.0 0.0
1.865323550794866 1.0 0.0
2.035104414722059 1.0 0.0
2.202040983487818 1.0 0.0
2.366180993436638 1.0 0.0
2.527571282866703 1.0 0.0
2.686257831390245 1.0 0.0
2.842286022819771 1.0 0.0
2.995700353514032 1.0 0.0
3.146544637914273 1.0 0.0
3.294861880721452 1.0 0.0
3.440694398353104 1.0 0.0
3.58408394609007 1.0 0.0
3.725071294102791 1.0 0.0
3.863696788294668 1.0 0.0
4.136303211705004 1.0 0.0
4.274928705896546 1.0 0.0
4.415916053908917 1.0 0.0
4.55930560164552 1.0 0.0
4.7051381192768 1.0 0.0
4.853455362083593 1.0 0.0
5.004299646483437 1.0 0.0
5.157713977177285 1.0 0.0
5.313742168606385 1.0 0.0
5.472428717129489 1.0 0.0
5.6338190065591 1.0 0.0
5.797959016507455 1.0 0.0
5.96489558527273 1.0 0.0
6.134676449200184 1.0 0.0
6.307350053255487 1.0 0.0
6.482965610925135 1.0 0.0
6.661573293780584 1.0 0.0
6.843224075830887 1.0 0.0
7.027969809247587 1.0 0.0
7.215863223066262 1.0 0.0
7.4069579368396 1.0 0.0
7.601308486450315 1.0 0.0
7.798970373357896 1.0 0.0
8.0 0.7999999999999996 0.0
8.0 0.6000000000013874 0.0
8.0 0.4000000000016649 0.0
8.0 0.2000000000008324 0.0
7.798970373357898 0.0 0.0
7.601308486450317 0.0 0.0
7.406957936839601 0.0 0.0
7.215863223066265 0.0 0.0
7.02796980924759 0.0 0.0
6.843224075830888 0.0 0.0
6.661573293780592 0.0 0.0
6.482965610925139 0.0 0.0
6.307350053255492 0.0 0.0
6.134676449200188 0.0 0.0
5.964895585272735 0.0 0.0
5.797959016507459 0.0 0.0
5.633819006559103 0.0 0.0
5.472428717129493 0.0 0.0
5.313742168606389 0.0 0.0
5.157713977177288 0.0 0.0
5.004299646483441 0.0 0.0
4.853455362083597 0.0 0.0
4.705138119276803 0.0 0.0
4.559305601645523 0.0 0.0
4.415916053908919 0.0 0.0
4.274928705896549 0.0 0.0
4.136303211705007 0.0 0.0
3.863696788294383 0.0 0.0
3.725071294102209 0.0 0.0
3.584083946089184 0.0 0.0
3.440694398352564 0.0 0.0
3.29486188072223 0.0 0.0
3.146544637916415 0.0 0.0
2.995700353517581 0.0 0.0
2.842286022824779 0.0 0.0
2.68625783139676 0.0 0.0
2.527571282874774 0.0 0.0
2.366180993446318 0.0 0.0
2.202040983499156 0.0 0.0
2.035104414735112 0.0 0.0
1.865323550807426 0.0 0.0
1.692649946751479 0.0 0.0
1.517034389081164 0.0 0.0
1.338426706225015 0.0 0.0
1.156775924174005 0.0 0.0
0.9720301907565596 0.0 0.0
0.784136776937109 0.0 0.0
0.5930420631629705 0.0 0.0
0.3986915135514271 0.0 0.0
0.2010296266429896 0.0 0.0
0.0 0.199999999999558 0.0
0.0 0.3999999999989746 0.0
0.0 0.5999999999989464 0.0
0.0 0.7999999999994731 0.0
4.065082561150232 0.3648546699507293 0.0
4.117274722996153 0.4064765305061043 0.0
4.146239186965635 0.4666218605127571 0.0
4.146239186588658 0.5333781411388893 0.0
4.117274722147235 0.5935234705584039 0.0
4.065082560620447 0.6351453303044018 0.0
3.934917439190226 0.6351453302132268 0.0
3.882725277520537 0.5935234701418048 0.0
3.853760813071839 0.5333781396514286 0.0
3.853760813263242 0.4666218595099774 0.0
3.882725277782338 0.4064765295299076 0.0
3.934917439246251 0.3648546697597932 0.0
3.348071016817302 0.5037366844559412 0.0
4.65817771841185 0.4813089492125461 0.0
5.148432135339639 0.5000000000000013 0.0
2.851567863014233 0.5000000000000465 0.0
4.406326506211093 0.3072680842959042 0.0
3.575604791543614 0.6706702532911111 0.0
4.424395205595821 0.6706702556565258 0.0
3.593673497058965 0.3072680820819204 0.0
5.648652107845511 0.5000000000000006 0.0
2.351347890458042 0.4999999999998563 0.0
1.851146954963573 0.4999999999998219 0.0
6.148853043290459 0.4999999999999989 0.0
6.65089532386231 0.5241211434250735 0.0
1.349104674975677 0.4758788558671475 0.0
7.150713697794147 0.4858064203922342 0.0
0.8492863006035025 0.4858064203396458 0.0
4.216343713145164 0.2287135668575249 0.0
3.7836562881134 0.7712864338025908 0.0
4.346988371127422 0.5000000019594898 0.0
4.213775907987267 0.7756803165215952 0.0
3.653011628408684 0.4999999990051173 0.0
3.786224091202296 0.224319683220954 0.0
7.572712389010231 0.5763628491757339 0.0
0.4272876103144935 0.5763628498169726 0.0
4.881741322202974 0.3185523670790996 0.0
3.118258676783759 0.6814476337404539 0.0
3.126854924363118 0.2792890251323842 0.0
4.873145074373641 0.7207109754187309 0.0
5.398381996912613 0.291094588046412 0.0
5.396092528392672 0.7230702977293901 0.0
2.603907471650227 0.7230702981371074 0.0
2.601618001742297 0.2910945873520305 0.0
4.065645388412852 0.1903894420877926 0.0
3.934354612281609 0.8096105573695707 0.0
4.268393145079946 0.6292513280674802 0.0
3.731606853978594 0.3707486723017213 0.0
4.265062587797852 0.3723525870906427 0.0
3.734937412407246 0.6276474138958879 0.0
5.89991820844496 0.720584760457478 0.0
5.899661142431216 0.2940789491313893 0.0
2.100338856207466 0.7059210507243335 0.0
2.100081790085733 0.2794152396968363 0.0
4.648216390708278 0.2460745758417431 0.0
3.350865525112209 0.7519279174007294 0.0
3.351783614314077 0.2460745727859678 0.0
4.649134469923633 0.7519279206208029 0.0
6.386000070083336 0.2800687217561524 0.0
6.399946740387701 0.7091877900019353 0.0
1.613999929083956 0.7199312783619409 0.0
1.600053258667474 0.2908122092889953 0.0
1.099018086220021 0.3101534564461602 0.0
1.099018086220183 0.6898465435530818 0.0
6.900981912171285 0.3101534566801202 0.0
6.900981912171287 0.689846543319878 0.0
3.934891793257755 0.2336799984692873 0.0
4.065108206439434 0.7663200008196746 0.0
5.133077706310633 0.254681732561614 0.0
5.131620328745691 0.7509194919064351 0.0
2.866922291796803 0.7453182673725732 0.0
2.868379670398546 0.2490805081265555 0.0
0.5973224633027379 0.3123440263675117 0.0
7.402677535116692 0.3123440263206204 0.0
7.70928508668797 0.2984218335093966 0.0
0.2907149122204558 0.2984218350042115 0.0
2.359042531710287 0.2526358364218651 0.0
2.362552667743482 0.7498876177132479 0.0
5.640957467742433 0.2526358368965552 0.0
5.637447332034727 0.7498876177447886 0.0
7.330771635020911 0.7204300868765696 0.0
0.6692283641678903 0.7204300870263377 0.0
6.141991504218947 0.7500064293114952 0.0
6.143214654121697 0.2541610692540839 0.0
1.858008494097047 0.2499935706645152 0.0
1.856785344746094 0.7458389307817799 0.0
1.360037479834015 0.7503851535261052 0.0
1.363297687800482 0.2332108063209677 0.0
6.636702311691573 0.7667891933666813 0.0
6.639962519949044 0.2496148464378299 0.0
7.14328150074831 0.2292696686424185 0.0
0.8567184978980538 0.2292696684503961 0.0
4.845173759433459 0.5000000012080886 0.0
3.15482623877425 0.4999999993865263 0.0
3.514470413944982 0.5755907957035395 0.0
4.485529584365944 0.5755907996488695 0.0
4.350214515329574 0.8947484376274254 0.0
3.64978548377064 0.1052515623441257 0.0
4.356280753270322 0.1397878825788729 0.0
3.643719248073251 0.8602121180766233 0.0
4.157657982820168 0.3023031440803671 0.0
3.842342017851872 0.6976968563131654 0.0
4.149794964153143 0.6947625877680722 0.0
3.850205035403508 0.3052374120341299 0.0
4.252863769441745 0.5000000013253333 0.0
3.747136230269581 0.4999999993774377 0.0
2.66150837620265 0.4835883053501762 0.0
5.338491622258749 0.4835883052760253 0.0
7.732076714471282 0.7613785341653052 0.0
0.267923285219987 0.7613785345749642 0.0
3.482582425594127 0.3988584940714734 0.0
4.517417574829351 0.3988584973195787 0.0
7.120961454429095 0.7969630876933931 0.0
0.8790385446795201 0.7969630878928393 0.0
4.524178509919695 0.1937066442020419 0.0
3.472973035782958 0.803602443762734 0.0
4.527026959328886 0.8036024455277256 0.0
3.475821495314308 0.1937066425220846 0.0
5.834485749168302 0.4775259269822466 0.0
2.16551424934095 0.5224740729963462 0.0
4.803832126993392 0.8343163881584211 0.0
3.196167871756218 0.1656836120733276 0.0
3.196167870279283 0.834316388182051 0.0
4.803832130306974 0.1656836112805605 0.0
1.646902821176459 0.5088844228822333 0.0
6.35309717778631 0.4911155766888507 0.0
4.128745436683365 0.8608937921704661 0.0
3.871254562700506 0.1391062074145501 0.0
7.783519314041498 0.4824599318584197 0.0
0.2164806854160975 0.4824599323519634 0.0
3.981228286637499 0.1341601386487245 0.0
4.018771713398118 0.8658398609794804 0.0
4.757705393330306 0.6277793253200102 0.0
3.245404476813698 0.3720431195654205 0.0
3.262406961538709 0.609092082228193 0.0
4.738552632749474 0.3854106153034425 0.0
4.980576921401999 0.1828043249223437 0.0
3.019423077460087 0.8171956749482756 0.0
4.975386875116307 0.8288560892267683 0.0
3.024613123995747 0.1711439108946455 0.0
7.537862127958827 0.7914398748884439 0.0
0.46213787149577 0.7914398749623154 0.0
4.150965283491015 0.1232311208167031 0.0
3.849034718225983 0.8767688792466098 0.0
0.6330166515036239 0.5212993800799176 0.0
7.366983347335347 0.5212993798709434 0.0
5.001451172914062 0.4591396125040952 0.0
2.998548825585332 0.5408603877155073 0.0
5.250532135494552 0.1623854812497458 0.0
5.24999687257574 0.8404382486850067 0.0
2.749794930508214 0.8396380739052673 0.0
2.749676059914328 0.161585306286623 0.0
1.150631951549359 0.5017906253149568 0.0
6.85747267660715 0.5137706215776152 0.0
2.938770240933895 0.3859183074771494 0.0
5.061229757952985 0.6140816927005173 0.0
5.521883200863776 0.8371838481144578 0.0
5.520780843451154 0.1567733764659754 0.0
2.479219155991939 0.1567733759623464 0.0
2.478116798894765 0.8371838481096507 0.0
2.208224060227917 0.1725929992863016 0.0
2.214655190115911 0.821187355218689 0.0
5.791775938918927 0.8274070011383262 0.0
5.785558009721889 0.1789659155514431 0.0
5.243140500145841 0.3651007420679131 0.0
5.247758683472709 0.6318228659349833 0.0
2.748336099792684 0.6332079670712092 0.0
2.766145970608876 0.3583112578457802 0.0
2.500794992947401 0.4517155340697119 0.0
5.499205006433885 0.4517155344186723 0.0
3.472119223331378 0.69283875816516 0.0
4.527880773131323 0.6928387614752662 0.0
2.445947440949104 0.6396216022327238 0.0
5.554052558509333 0.6396216019605415 0.0
1.976669571201813 0.1631348676957265 0.0
[...]
POINT_DATA 494

VECTORS Velocity float
0.0000000000000000 0.0000000000000000 0.0
0.8198770394369159 -0.1381219470302358 0.0
0.0000000000000000 0.0000000000000000 0.0
0.0000000000000000 0.0000000000000000 0.0
0.0000000000000000 0.0000000000000000 0.0
0.0000000000000000 0.0000000000000000 0.0
0.0000000000000000 0.0000000000000000 0.0
0.0000000000000000 0.0000000000000000 0.0
0.0000000000000000 0.0000000000000000 0.0
0.0000000000000000 0.0000000000000000 0.0
0.0000000000000000 0.0000000000000000 0.0
0.0000000000000000 0.0000000000000000 0.0
0.0000000000000000 0.0000000000000000 0.0
0.0000000000000000 0.0000000000000000 0.0
0.0000000000000000 0.0000000000000000 0.0
0.0000000000000000 0.0000000000000000 0.0
0.0000000000000000 0.0000000000000000 0.0
0.0000000000000000 0.0000000000000000 0.0
0.0000000000000000 0.0000000000000000 0.0
0.0000000000000000 0.0000000000000000 0.0
0.0000000000000000 0.0000000000000000 0.0
0.0000000000000000 0.0000000000000000 0.0
0.0000000000000000 0.0000000000000000 0.0
0.0000000000000000 0.0000000000000000 0.0
0.0000000000000000 0.0000000000000000 0.0
0.0000000000000000 0.0000000000000000 0.0
0.0000000000000000 0.0000000000000000 0.0
0.0000000000000000 0.0000000000000000 0.0
0.0000000000000000 0.0000000000000000 0.0
0.0000000000000000 0.0000000000000000 0.0
0.0000000000000000 0.0000000000000000 0.0
0.0000000000000000 0.0000000000000000 0.0
0.0000000000000000 0.0000000000000000 0.0
0.0000000000000000 0.0000000000000000 0.0
0.0000000000000000 0.0000000000000000 0.0
0.0000000000000000 0.0000000000000000 0.0
0.0000000000000000 0.0000000000000000 0.0
0.0000000000000000 0.0000000000000000 0.0
0.0000000000000000 0.0000000000000000 0.0
0.0000000000000000 0.0000000000000000 0.0
0.0000000000000000 0.0000000000000000 0.0
0.0000000000000000 0.0000000000000000 0.0
0.0000000000000000 0.0000000000000000 0.0
0.0000000000000000 0.0000000000000000 0.0
0.0000000000000000 0.0000000000000000 0.0
0.0000000000000000 0.0000000000000000 0.0
0.0000000000000000 0.0000000000000000 0.0
0.0000000000000000 0.0000000000000000 0.0
0.0000000000000000 0.0000000000000000 0.0
0.0000000000000000 0.0000000000000000 0.0
0.0000000000000000 0.0000000000000000 0.0
0.0000000000000000 0.0000000000000000 0.0
0.0000000000000000 0.0000000000000000 0.0
0.0000000000000000 0.0000000000000000 0.0
1.0771295911268661 0.5438965240282743 0.0
0.9956109924817756 0.1369338362445289 0.0
0.9602732422032068 -0.0886486297843297 0.0
1.0633943565273725 -0.4542033021839446 0.0
0.0000000000000000 0.0000000000000000 0.0
0.0000000000000000 0.0000000000000000 0.0
0.0000000000000000 0.0000000000000000 0.0
0.0000000000000000 0.0000000000000000 0.0
0.0000000000000000 0.0000000000000000 0.0
0.0000000000000000 0.0000000000000000 0.0
0.0000000000000000 0.0000000000000000 0.0
0.0000000000000000 0.0000000000000000 0.0
0.0000000000000000 0.0000000000000000 0.0
0.0000000000000000 0.0000000000000000 0.0
0.0000000000000000 0.0000000000000000 0.0
0.0000000000000000 0.0000000000000000 0.0
0.0000000000000000 0.0000000000000000 0.0
0.0000000000000000 0.0000000000000000 0.0
0.0000000000000000 0.0000000000000000 0.0
0.0000000000000000 0.0000000000000000 0.0
0.0000000000000000 0.0000000000000000 0.0
0.0000000000000000 0.0000000000000000 0.0
0.0000000000000000 0.0000000000000000 0.0
0.0000000000000000 0.0000000000000000 0.0
0.0000000000000000 0.0000000000000000 0.0
0.0000000000000000 0.0000000000000000 0.0
0.0000000000000000 0.0000000000000000 0.0
0.0000000000000000 0.0000000000000000 0.0
0.0000000000000000 0.0000000000000000 0.0
0.0000000000000000 0.0000000000000000 0.0
0.0000000000000000 0.0000000000000000 0.0
0.0000000000000000 0.0000000000000000 0.0
0.0000000000000000 0.0000000000000000 0.0
0.0000000000000000 0.0000000000000000 0.0
0.0000000000000000 0.0000000000000000 0.0
0.0000000000000000 0.0000000000000000 0.0
0.0000000000000000 0.0000000000000000 0.0
0.0000000000000000 0.0000000000000000 0.0
0.0000000000000000 0.0000000000000000 0.0
0.0000000000000000 0.0000000000000000 0.0
0.0000000000000000 0.0000000000000000 0.0
0.0000000000000000 0.0000000000000000 0.0
0.0000000000000000 0.0000000000000000 0.0
0.0000000000000000 0.0000000000000000 0.0
0.0000000000000000 0.0000000000000000 0.0
0.0000000000000000 0.0000000000000000 0.0
0.0000000000000000 0.0000000000000000 0.0
0.0000000000000000 0.0000000000000000 0.0
0.0000000000000000 0.0000000000000000 0.0
0.0000000000000000 0.0000000000000000 0.0
1.0000000000000000 0.0000000000000000 0.0
1.0000000000000000 0.0000000000000000 0.0
1.0000000000000000 0.0000000000000000 0.0
1.0000000000000000 0.0000000000000000 0.0
0.0000000000000000 0.0000000000000000 0.0
0.0000000000000000 0.0000000000000000 0.0
0.0000000000000000 0.0000000000000000 0.0
0.0000000000000000 0.0000000000000000 0.0
0.0000000000000000 0.0000000000000000 0.0
0.0000000000000000 0.0000000000000000 0.0
0.0000000000000000 0.0000000000000000 0.0
0.0000000000000000 0.0000000000000000 0.0
0.0000000000000000 0.0000000000000000 0.0
0.0000000000000000 0.0000000000000000 0.0
0.0000000000000000 0.0000000000000000 0.0
0.0000000000000000 0.0000000000000000 0.0
1.5771008472035926 -0.0085507047243069 0.0
1.5799088094013929 0.0152766436064416 0.0
1.6317795062230003 -0.0111141665616238 0.0
1.6289584824050922 -0.0193389903477911 0.0
1.3492277130107591 0.0756307390596708 0.0
1.3698444423392706 0.0603643872836037 0.0
1.4068378255207088 -0.1069833679497011 0.0
1.3868191264806788 -0.1260065417551579 0.0
1.6087390145676776 0.0013043135158238 0.0
1.6081147084933112 -0.0059559963276225 0.0
1.5562205402500524 0.0048508091515871 0.0
1.5552279191512446 -0.0007390212211862 0.0
1.5719377960135446 -0.0316201414421298 0.0
1.5719789775733661 0.0160581337034246 0.0
1.6549060163964613 0.0091658264077998 0.0
1.6515612594294216 -0.0163680760280391 0.0
1.3239573652734273 0.3104595947270058 0.0
1.3232806018830299 0.3047139295350472 0.0
1.3433774491731758 0.0220137575324088 0.0
1.3590399025345352 -0.2256968531362334 0.0
1.3428001071207163 0.0167560122904758 0.0
1.3594007016762275 -0.2293558871497287 0.0
1.5491197978355489 0.0147554359419867 0.0
1.5325883181581079 -0.0346206226953606 0.0
1.3403025948534715 0.0083654047688438 0.0
1.3411116550740072 0.0075705675009786 0.0
1.2683861082623182 -0.0021770010425628 0.0
1.2595052227481074 -0.0033631379548937 0.0
1.3051298686212411 -0.0057994168059958 0.0
1.2128631426494967 -0.0146583269410559 0.0
1.1852466410068045 0.0085697529041165 0.0
1.3255467213148060 0.0026920783448395 0.0
1.4606441702948305 0.1347174707884777 0.0
1.4610462193628435 0.1326685136192847 0.0
1.4266332212951436 -0.2669083751725492 0.0
1.4321603886596073 -0.2705292485098176 0.0
1.4402494876739249 0.3448327137223774 0.0
1.4349025192893314 0.3437447774189463 0.0
1.1824097797377682 -0.0290589086374791 0.0
1.3016117792702693 -0.0072138758496526 0.0
1.2927387553210654 -0.0154023083606426 0.0
1.1872937205977230 -0.0305416349335985 0.0
1.0871191978695232 -0.0602223412441649 0.0
1.0911383141853652 -0.0505132007393122 0.0
1.1047124064100970 0.0364951678811151 0.0
1.1119813563826053 0.0227798817848347 0.0
1.2547732632105386 0.0048815937579341 0.0
1.2410413094853996 -0.0199407286880354 0.0
1.2441785703234347 0.0177878607158456 0.0
1.2506050894885692 -0.0032301239039844 0.0
1.4398651210686402 -0.0300274520885311 0.0
1.3212170248441444 0.0535938928995739 0.0
1.4443936468362890 0.0328561045534342 0.0
1.3135461305448082 -0.0472878632158623 0.0
1.5793464524534868 -0.2249237282739077 0.0
1.5789141607369275 -0.2244895474950653 0.0
1.1586816201344763 -0.0520414946087452 0.0
1.1822760934713661 0.0560400836453136 0.0
1.1465085118874394 -0.0565026143229146 0.0
1.1905834923495300 0.0436069423281449 0.0
1.4293762802416707 0.0316589213379945 0.0
1.4397003026336352 -0.0291467565973359 0.0
1.2946776574112528 -0.1605866961774407 0.0
1.2812246454376188 0.1932913444995210 0.0
1.1910384089775283 0.0510381055990579 0.0
1.1410083104271789 -0.0044632082614784 0.0
1.1873523544968669 -0.0374098738750010 0.0
1.1559136503409644 0.0312670753210245 0.0
1.2892793787552606 0.0084687190944221 0.0
1.2959204537132423 -0.0145919249733733 0.0
1.1578123188808425 0.0377386278554384 0.0
1.2183009788351711 -0.0661645522251306 0.0
1.1608063873530436 0.0406474494507325 0.0
1.2149239134249286 -0.0647560052781807 0.0
1.1704156861406101 0.0692512838645856 0.0
1.1448583717414049 -0.0399881116810656 0.0
1.1015602866108571 -0.0580090258094243 0.0
1.2047431948637362 0.0511231525659594 0.0
1.1036592772794767 -0.0235740409339212 0.0
1.0979228978095796 0.0191341286373506 0.0
1.5995451937888572 0.0095327329796511 0.0
1.6013048776225796 0.0000482192156310 0.0
1.4700341194222049 0.0349979411564716 0.0
1.4859491803040683 -0.0673764393752145 0.0
0.4832383508420220 -0.0122928091240849 0.0
0.4660397445881109 -0.0139017462260488 0.0
0.5811197902651639 0.1053193148317274 0.0
0.5997284259106490 0.1046815003483538 0.0
1.4634228293121223 0.4395381952454508 0.0
1.4587739887988354 0.4365816257085802 0.0
1.5415104596108389 -0.3520945770525268 0.0
1.5435162586062667 -0.3529613836344276 0.0
0.9820655375536014 0.0301091126307192 0.0
0.9826160126326612 0.0414008256929938 0.0
1.6091701190869090 0.0305710069190347 0.0
1.6018883389073406 -0.0424850336692246 0.0
1.1592777857296352 0.1959217009053170 0.0
1.1963234236962261 -0.2745032229772768 0.0
1.5080900389844365 -0.0537962998282232 0.0
1.4874600350657237 0.0152469002735734 0.0
0.7374608868218703 -0.0073823835105604 0.0
0.7587628078401512 0.0060391444236231 0.0
0.9126760094536557 -0.0166011877950861 0.0
0.9261876248120231 -0.0196401692102264 0.0
0.9412568624831770 0.0036702004457396 0.0
0.9305551440747911 0.0034221626278341 0.0
1.5757397167410818 -0.0255939006406335 0.0
1.5754796035671412 -0.0531348835307214 0.0
0.6716698422126950 -0.0856024644614515 0.0
0.6711606749873820 -0.0867248008893788 0.0
0.7181547759999124 0.0665172645747259 0.0
0.7180393982826911 0.0654661455388759 0.0
1.4952437648938168 0.0467469345221714 0.0
1.4957190358913093 0.0323746001658877 0.0
0.9019139347290752 -0.1215136336797672 0.0
0.9026208903246824 -0.1245023894251328 0.0
1.3575590590604500 0.0006207110635030 0.0
1.2764087371256057 0.0143141618680641 0.0
1.0033942685906776 -0.0932074974349050 0.0
1.0038198212426617 -0.0931097452249720 0.0
1.5090180946649032 -0.0312089605732526 0.0
1.5151048166366836 -0.0342280232781729 0.0
1.4760733158107506 0.0428978487247211 0.0
1.4804115884187987 0.0497906923658712 0.0
0.7555298777616637 -0.0063405933592471 0.0
0.7582481489245708 -0.0054879878113080 0.0
0.7095065533611762 0.0198288691998720 0.0
0.6998217284334202 0.0171543098544307 0.0
0.8173809861657418 0.0370673258140912 0.0
0.8404265216242052 -0.0647060632561484 0.0
0.7479687924015161 0.0879169265912157 0.0
0.7505333725979242 0.0851428100103992 0.0
1.5776184127767934 -0.0111155632909604 0.0
1.5876291120561226 0.0059947338862697 0.0
1.5853292128218706 -0.0076921552859130 0.0
1.5860428241337707 -0.0082690251228896 0.0
0.7041229085353728 -0.0025421046501297 0.0
0.7280554053417362 0.0255788566007972 0.0
0.7092777090519152 -0.0127304838692322 0.0
0.7061921139750554 0.0176569593801444 0.0
1.6256128558419154 -0.0011731784220391 0.0
1.6289433756217058 -0.0449665102012686 0.0
1.5162388724624756 -0.0145482776559387 0.0
1.5172244406362356 -0.0160538533225307 0.0
0.7161251578683513 -0.0104524990841124 0.0
0.6393718027809089 0.0177299381873726 0.0
0.6511915902176165 -0.0193627402711432 0.0
0.6986909071988239 0.0089362397782723 0.0
0.8064039935900664 0.0307827249361085 0.0
0.7798991756709011 -0.0211976042666266 0.0
0.8108142986580394 0.0210909940029665 0.0
0.7937968235058618 -0.0271369318866169 0.0
1.4130133237485145 -0.0082709666515420 0.0
1.4368555785364134 0.0004224733597509 0.0
1.4165095597464588 -0.0014292842231562 0.0
1.4365248268230775 0.0048951134367380 0.0
1.5764900232383230 0.0025256786146882 0.0
1.5653347363493437 -0.0103955210983621 0.0
1.3151212344740721 0.0098023996912819 0.0
1.3564487160973788 -0.0301625218891411 0.0
1.4088878553542106 0.0036544686796195 0.0
1.4159111213352937 -0.0130082607951583 0.0
0.7232490928778553 -0.0170614267429933 0.0
0.6699384466750103 0.0193331027409177 0.0
0.7243428432249879 -0.0185760139451376 0.0
0.6718396164854658 0.0206276406719743 0.0
0.5630616890145249 -0.1151935785948730 0.0
0.5669268680482467 -0.1101496668326696 0.0
1.2867105122159632 0.1168243825409031 0.0
1.2858221170864286 0.1145626849003055 0.0
1.4205768248686397 -0.0141579174712889 0.0
1.3829952585196712 -0.0384064413757855 0.0
1.3870203752139618 0.0226331331416335 0.0
1.4216215144335158 -0.0023347863684194 0.0
0.7984533179722381 -0.0650330734810426 0.0
0.7981708253776422 0.0747605521309708 0.0
1.1165422247981822 -0.1513124272999423 0.0
1.1168016431679397 -0.1469433770263801 0.0
1.1219305906323191 0.2139799246379225 0.0
1.1173505222693600 0.2157280266425135 0.0
0.8464254329433710 -0.0426981757479908 0.0
0.8080945685822398 0.0490742627717193 0.0
0.8418932613102984 -0.0387075511295276 0.0
0.8138316893260703 0.0549066227568432 0.0
1.5525188320469390 -0.0100663740046888 0.0
1.5527456142531961 -0.0186752045539662 0.0
0.6850503964031035 -0.0208683754845929 0.0
0.7040934907792346 0.0036710128669259 0.0
0.6480033715957940 0.0247161932372164 0.0
0.7314220392986838 0.0420596070019386 0.0
0.6613614661513924 0.0016939386897486 0.0
0.6660204907711450 -0.0022176830799442 0.0
1.4098784653357603 -0.2020202589927952 0.0
1.4065344777950497 -0.1946075846875795 0.0
1.2761686895532607 0.2536368869613685 0.0
1.2763395380914340 0.2381923757689850 0.0
0.4875676236670133 -0.0513841246684530 0.0
0.4948424669980970 -0.0506836601678766 0.0
0.4945351108977871 0.0522131254421017 0.0
0.5019572505863578 0.0504913590879201 0.0
1.4018050190734759 -0.0060235078344860 0.0
1.4050610523425533 -0.0031920745459789 0.0
1.4118199175488897 -0.1541344053945973 0.0
1.4256449268091920 -0.1527403709976961 0.0
1.4366125617466814 0.1683910488486362 0.0
1.4187265160395079 0.1657059859063777 0.0
0.8525061834898516 0.0396737637223359 0.0
0.7453549133528190 -0.1085985412675731 0.0
0.8390584464512126 0.0506157604285898 0.0
0.7630552294106052 -0.0928739055809008 0.0
1.3963067106989255 -0.0445540362603409 0.0
1.3695107919625611 0.0512250934787383 0.0
1.3914964801753507 -0.0380664567381919 0.0
1.3728351027567074 0.0587814402876230 0.0
1.5094958875473998 -0.0003459712125871 0.0
1.5081566074886190 -0.0302037703089366 0.0
0.6471257631677275 0.0018031176767236 0.0
0.6500081306083572 0.0047855251341622 0.0
1.3900171728436324 0.0785177489164132 0.0
1.4018553739075230 0.0532616229338947 0.0
1.5192533981887713 -0.0415858822733490 0.0
1.4952081919761717 0.0454101907738022 0.0
0.7061245874901279 0.0886910193239162 0.0
0.6937788863347086 0.0960099094041599 0.0
1.4617819279272788 -0.0287020632875467 0.0
1.4145176907229602 0.0355569528241091 0.0
1.4142713289432445 -0.0498566368155713 0.0
1.4612596789200725 0.0042026813190215 0.0
1.6322854931007738 0.0182091041342441 0.0
1.6456966906301689 -0.0252473600475925 0.0
0.5038177764934851 0.0003592976069188 0.0
0.5020071089815769 0.0016833727781157 0.0
1.5282312175513302 -0.0308911577656440 0.0
1.5255175048780953 0.0305100046657363 0.0
0.9374403104964505 0.2269478845699924 0.0
0.9057291619080378 -0.2233187870690045 0.0
1.4846208849674398 -0.0150639938489452 0.0
1.4834513234593025 -0.0044623860748057 0.0
1.3144699387079533 0.0069072817277914 0.0
1.3554465736395096 -0.0312379729843361 0.0
1.3235735633039065 -0.0148923757272432 0.0
1.3274068202456999 -0.0147553642567106 0.0
1.2047902175999770 -0.1175182023448797 0.0
1.2048401594725446 -0.1176538406208758 0.0
1.4824057875647794 -0.0194414162825463 0.0
1.4346626570120056 0.0036614772638619 0.0
1.4524644466628458 -0.0302655520129451 0.0
1.4411788736449318 0.0315141231854911 0.0
1.4897821675912233 -0.0246170332705658 0.0
1.4409623939603187 0.0087940587213265 0.0
0.4314749417660973 0.0485568334525763 0.0
0.4340322805747635 0.0449986502827308 0.0
0.4269776669263011 -0.0322265330506093 0.0
0.4200230282471972 -0.0356951804997891 0.0
1.4357593324272586 -0.3240848894710701 0.0
1.4369562240640490 -0.3267050334702141 0.0
0.3970705016588770 0.0066716688475665 0.0
0.4058942854403713 -0.0108565378414216 0.0
1.5130287009713734 0.3214498474070297 0.0
1.5143506149836714 0.3163774713688696 0.0
0.5922489397392403 0.0981708228115317 0.0
0.5931335521433484 0.0970961621000697 0.0
1.5176904856319295 0.0233095457431899 0.0
1.5208212205161407 -0.0224542612948326 0.0
1.3281803678378896 -0.0150701089329402 0.0
1.3410267441795136 0.0146652531147173 0.0
1.4563508517717725 -0.3644382014968547 0.0
1.4522824084888097 -0.3617552204517920 0.0
1.3973305656433550 0.4743676620980375 0.0
1.4068668597330534 0.4708042527214276 0.0
1.5822809910820945 0.0075709551408599 0.0
1.5806623881045785 0.0074247835465845 0.0
0.4864063191237554 0.0548301574402073 0.0
0.4654969340877214 -0.0606317142197336 0.0
0.4795609584522972 0.0587055207932586 0.0
0.4751996874263570 -0.0570609017397950 0.0
0.3943683969534345 0.0275149274822241 0.0
0.4149703876712213 0.0277112676010148 0.0
0.4308934572704919 -0.0149816012922706 0.0
0.4520727024241906 -0.0163216590440785 0.0
1.2320921993429654 -0.1991828243098077 0.0
1.2486294397808042 -0.1996547916534776 0.0
1.2623531650202797 0.2695722261561810 0.0
1.2466706708562421 0.2694204252645546 0.0
1.2070101226430212 -0.2720951948355120 0.0
1.1809155207528859 0.2659072611173429 0.0
1.4494898514257566 0.0043332063023119 0.0
1.4562045194272195 0.0154998556922567 0.0
0.5104781654819557 -0.0091299127727611 0.0
0.4858729382043686 -0.0005046526062561 0.0
0.5201527831895832 0.0140764694744187 0.0
0.4987707853483844 0.0043461651441381 0.0
1.4846053370769705 -0.0197964865686349 0.0
1.4729370775314616 0.0052443686023315 0.0
1.3328781845771880 -0.0253515652352082 0.0
1.3342698882524817 -0.0231851609347167 0.0
0.8722771801202294 0.2642605750207184 0.0
0.9351938722194706 -0.2433670138603686 0.0
1.0459198680495829 0.0791702067823015 0.0
1.0510916429758661 0.0847741601392746 0.0
1.0645183556236104 -0.1029550825274129 0.0
1.0637538898607464 -0.1047855793536167 0.0
0.6351901901218239 -0.1340540529133886 0.0
0.6496740346824379 0.1421922367635944 0.0
0.2898206093709376 -0.0253375970534472 0.0
0.2925019000068878 -0.0244280806388024 0.0
0.2986675060295667 -0.0096612583934919 0.0
0.2977973556607138 -0.0095022502195166 0.0
0.3565701635481722 -0.0116711690498746 0.0
0.3564651616642349 0.0118279491025750 0.0
1.2243441339613050 0.3280135652555980 0.0
1.1734634170621683 -0.2644774605291846 0.0
0.5060831170305540 -0.0602211825077286 0.0
0.4953813046896852 0.0721188454735962 0.0
0.5049250576250381 -0.0594216638810491 0.0
0.4968876454290685 0.0738877683058347 0.0
1.4848036306229218 0.0483679982508649 0.0
1.4951830153686956 -0.0613288124550948 0.0
0.4523684539048001 0.0758084094629256 0.0
0.5225269700524156 -0.1242853998981291 0.0
0.9587998692070357 0.0589568708170271 0.0
0.9551520893912108 0.0573967387479111 0.0
0.9810755634187553 -0.0556711334454175 0.0
0.9816449554812688 -0.0555024370179479 0.0
0.8742507760569589 0.0271330986239951 0.0
0.8747005417032347 0.0367579071268329 0.0
0.5332507668733686 0.0444631994964545 0.0
0.5085797898420928 -0.0576828752418151 0.0
0.5304493276670623 0.0432055416492347 0.0
0.5074439478511859 -0.0577996325182045 0.0
1.5424378843547801 -0.0059078562172530 0.0
1.5393027344243515 -0.0029559481298264 0.0
0.4256891549033491 -0.0722923904713774 0.0
0.4742358533166935 0.0498442677179455 0.0
0.4597869727809569 0.0610649597959806 0.0
0.4445454921319899 -0.0608565437635580 0.0
1.0264698858723140 0.0358764053717878 0.0
1.0602500656873652 0.0386853814264249 0.0
1.0904983961028014 -0.0538690935083966 0.0
1.0677462538538081 -0.0568046149182799 0.0
1.3135469636940436 0.0157153796707859 0.0
1.3104447486013768 0.0239148186566733 0.0
1.3552707221557523 -0.0669576071813965 0.0
1.3681885239698095 -0.0406094269302967 0.0
1.0691170285663654 -0.1178914319379666 0.0
1.0653821528977672 -0.1236977020379700 0.0
0.5293327226665089 -0.0018265959958269 0.0
0.5303176161079191 0.0076160223048034 0.0
0.5362449141658543 0.0042288499556947 0.0
0.5213336427441285 -0.0060523300196282 0.0