# vtk DataFile Version 3.0
LucasCarvalhoTCC Results
ASCII

DATASET POLYDATA
FIELD FieldData 1
TIME 1 1 double
3.7

POINTS 494 float
0.0 0.0 0.0
8.0 0.0 0.0
8.0 1.0 0.0
0.0 1.0 0.0
4.0 0.0 0.0
4.0 1.0 0.0
4.0 0.35 0.0
4.0 0.65 0.0
0.2010296266416496 1.0 0.0
0.3986915135488555 1.0 0.0
0.5930420631591132 1.0 0.0
0.7841367769318693 1.0 0.0
0.9720301907499852 1.0 0.0
1.156775924166146 1.0 0.0
1.33842670621592 1.0 0.0
1.517034389070868 1.0 0.0
1.69264994674003 1.0 0.0
1.865323550794866 1.0 0.0
2.035104414722059 1.0 0.0
2.202040983487818 1.0 0.0
2.366180993436638 1.0 0.0
2.527571282866703 1.0 0.0
2.686257831390245 1.0 0.0
2.842286022819771 1.0 0.0
2.995700353514032 1.0 0.0
3.146544637914273 1.0 0.0
3.294861880721452 1.0 0.0
3.440694398353104 1.0 0.0
3.58408394609007 1.0 0.0
3.725071294102791 1.0 0.0
3.863696788294668 1.0 0.0
4.136303211705004 1.0 0.0
4.274928705896546 1.0 0.0
4.415916053908917 1.0 0.0
4.55930560164552 1.0 0.0
4.7051381192768 1.0 0.0
4.853455362083593 1.0 0.0
5.004299646483437 1.0 0.0
5.157713977177285 1.0 0.0
5.313742168606385 1.0 0.0
5.472428717129489 1.0 0.0
5.6338190065591 1.0 0.0
5.797959016507455 1.0 0.0
5.96489558527273 1.0 0.0
6.134676449200184 1.0 0.0
6.307350053255487 1.0 0.0
6.482965610925135 1.0 0.0
6.661573293780584 1.0 0.0
6.843224075830887 1.0 0.0
7.027969809247587 1.0 0.0
7.215863223066262 1.0 0.0
7.4069579368396 1.0 0.0
7.601308486450315 1.0 0.0
7.798970373357896 1.0 0.0
8.0 0.7999999999999996 0.0
8.0 0.6000000000013874 0.0
8.0 0.4000000000016649 0.0
8.0 0.2000000000008324 0.0
7.798970373357898 0.0 0.0
7.601308486450317 0.0 0.0
7.406957936839601 0.0 0.0
7.215863223066265 0.0 0.0
7.02796980924759 0.0 0.0
6.843224075830888 0.0 0.0
6.661573293780592 0.0 0.0
6.482965610925139 0.0 0.0
6.307350053255492 0.0 0.0
6.134676449200188 0.0 0.0
5.964895585272735 0.0 0.0
5.797959016507459 0.0 0.0
5.633819006559103 0.0 0.0
5.472428717129493 0.0 0.0
5.313742168606389 0.0 0.0
5.157713977177288 0.0 0.0
5.004299646483441 0.0 0.0
4.853455362083597 0.0 0.0
4.705138119276803 0.0 0.0
4.559305601645523 0.0 0.0
4.415916053908919 0.0 0.0
4.274928705896549 0.0 0.0
4.136303211705007 0.0 0.0
3.863696788294383 0.0 0.0
3.725071294102209 0.0 0.0
3.584083946089184 0.0 0.0
3.440694398352564 0.0 0.0
3.29486188072223 0.0 0.0
3.146544637916415 0.0 0.0
2.995700353517581 0.0 0.0
2.842286022824779 0.0 0.0
2.68625783139676 0.0 0.0
2.527571282874774 0.0 0.0
2.366180993446318 0.0 0.0
2.202040983499156 0.0 0.0
2.035104414735112 0.0 0.0
1.865323550807426 0.0 0.0
1.692649946751479 0.0 0.0
1.517034389081164 0.0 0.0
1.338426706225015 0.0 0.0
1.156775924174005 0.0 0.0
0.9720301907565596 0.0 0.0
0.784136776937109 0.0 0.0
0.5930420631629705 0.0 0.0
0.3986915135514271 0.0 0.0
0.2010296266429896 0.0 0.0
0.0 0.199999999999558 0.0
0.0 0.3999999999989746 0.0
0.0 0.5999999999989464 0.0
0.0 0.7999999999994731 0.0
4.065082561150232 0.3648546699507293 0.0
4.117274722996153 0.4064765305061043 0.0
4.146239186965635 0.4666218605127571 0.0
4.146239186588658 0.5333781411388893 0.0
4.117274722147235 0.5935234705584039 0.0
4.065082560620447 0.6351453303044018 0.0
3.934917439190226 0.6351453302132268 0.0
3.882725277520537 0.5935234701418048 0.0
3.853760813071839 0.5333781396514286 0.0
3.853760813263242 0.4666218595099774 0.0
3.882725277782338 0.4064765295299076 0.0
3.934917439246251 0.3648546697597932 0.0
3.348071016817302 0.5037366844559412 0.0
4.65817771841185 0.4813089492125461 0.0
5.148432135339639 0.5000000000000013 0.0
2.851567863014233 0.5000000000000465 0.0
4.406326506211093 0.3072680842959042 0.0
3.575604791543614 0.6706702532911111 0.0
4.424395205595821 0.6706702556565258 0.0
3.593673497058965 0.3072680820819204 0.0
5.648652107845511 0.5000000000000006 0.0
2.351347890458042 0.4999999999998563 0.0
1.851146954963573 0.4999999999998219 0.0
6.148853043290459 0.4999999999999989 0.0
6.65089532386231 0.5241211434250735 0.0
1.349104674975677 0.4758788558671475 0.0
7.150713697794147 0.4858064203922342 0.0
0.8492863006035025 0.4858064203396458 0.0
4.216343713145164 0.2287135668575249 0.0
3.7836562881134 0.7712864338025908 0.0
4.346988371127422 0.5000000019594898 0.0
4.213775907987267 0.7756803165215952 0.0
3.653011628408684 0.4999999990051173 0.0
3.786224091202296 0.224319683220954 0.0
7.572712389010231 0.5763628491757339 0.0
0.4272876103144935 0.5763628498169726 0.0
4.881741322202974 0.3185523670790996 0.0
3.118258676783759 0.6814476337404539 0.0
3.126854924363118 0.2792890251323842 0.0
4.873145074373641 0.7207109754187309 0.0
5.398381996912613 0.291094588046412 0.0
5.396092528392672 0.7230702977293901 0.0
2.603907471650227 0.7230702981371074 0.0
2.601618001742297 0.2910945873520305 0.0
4.065645388412852 0.1903894420877926 0.0
3.934354612281609 0.8096105573695707 0.0
4.268393145079946 0.6292513280674802 0.0
3.731606853978594 0.3707486723017213 0.0
4.265062587797852 0.3723525870906427 0.0
3.734937412407246 0.6276474138958879 0.0
5.89991820844496 0.720584760457478 0.0
5.899661142431216 0.2940789491313893 0.0
2.100338856207466 0.7059210507243335 0.0
2.100081790085733 0.2794152396968363 0.0
4.648216390708278 0.2460745758417431 0.0
3.350865525112209 0.7519279174007294 0.0
3.351783614314077 0.2460745727859678 0.0
4.649134469923633 0.7519279206208029 0.0
6.386000070083336 0.2800687217561524 0.0
6.399946740387701 0.7091877900019353 0.0
1.613999929083956 0.7199312783619409 0.0
1.600053258667474 0.2908122092889953 0.0
1.099018086220021 0.3101534564461602 0.0
1.099018086220183 0.6898465435530818 0.0
6.900981912171285 0.3101534566801202 0.0
6.900981912171287 0.689846543319878 0.0
3.934891793257755 0.2336799984692873 0.0
4.065108206439434 0.7663200008196746 0.0
5.133077706310633 0.254681732561614 0.0
5.131620328745691 0.7509194919064351 0.0
2.866922291796803 0.7453182673725732 0.0
2.868379670398546 0.2490805081265555 0.0
0.5973224633027379 0.3123440263675117 0.0
7.402677535116692 0.3123440263206204 0.0
7.70928508668797 0.2984218335093966 0.0
0.2907149122204558 0.2984218350042115 0.0
2.359042531710287 0.2526358364218651 0.0
2.362552667743482 0.7498876177132479 0.0
5.640957467742433 0.2526358368965552 0.0
5.637447332034727 0.7498876177447886 0.0
7.330771635020911 0.7204300868765696 0.0
0.6692283641678903 0.7204300870263377 0.0
6.141991504218947 0.7500064293114952 0.0
6.143214654121697 0.2541610692540839 0.0
1.858008494097047 0.2499935706645152 0.0
1.856785344746094 0.7458389307817799 0.0
1.360037479834015 0.7503851535261052 0.0
1.363297687800482 0.2332108063209677 0.0
6.636702311691573 0.7667891933666813 0.0
6.639962519949044 0.2496148464378299 0.0
7.14328150074831 0.2292696686424185 0.0
0.8567184978980538 0.2292696684503961 0.0
4.845173759433459 0.5000000012080886 0.0
3.15482623877425 0.4999999993865263 0.0
3.514470413944982 0.5755907957035395 0.0
4.485529584365944 0.5755907996488695 0.0
4.350214515329574 0.8947484376274254 0.0
3.64978548377064 0.1052515623441257 0.0
4.356280753270322 0.1397878825788729 0.0
3.643719248073251 0.8602121180766233 0.0
4.157657982820168 0.3023031440803671 0.0
3.842342017851872 0.6976968563131654 0.0
4.149794964153143 0.6947625877680722 0.0
3.850205035403508 0.3052374120341299 0.0
4.252863769441745 0.5000000013253333 0.0
3.747136230269581 0.4999999993774377 0.0
2.66150837620265 0.4835883053501762 0.0
5.338491622258749 0.4835883052760253 0.0
7.732076714471282 0.7613785341653052 0.0
0.267923285219987 0.7613785345749642 0.0
3.482582425594127 0.3988584940714734 0.0
4.517417574829351 0.3988584973195787 0.0
7.120961454429095 0.7969630876933931 0.0
0.8790385446795201 0.7969630878928393 0.0
4.524178509919695 0.1937066442020419 0.0
3.472973035782958 0.803602443762734 0.0
4.527026959328886 0.8036024455277256 0.0
3.475821495314308 0.1937066425220846 0.0
5.834485749168302 0.4775259269822466 0.0
2.16551424934095 0.5224740729963462 0.0
4.803832126993392 0.8343163881584211 0.0
3.196167871756218 0.1656836120733276 0.0
3.196167870279283 0.834316388182051 0.0
4.803832130306974 0.1656836112805605 0.0
1.646902821176459 0.5088844228822333 0.0
6.35309717778631 0.4911155766888507 0.0
4.128745436683365 0.8608937921704661 0.0
3.871254562700506 0.1391062074145501 0.0
7.783519314041498 0.4824599318584197 0.0
0.2164806854160975 0.4824599323519634 0.0
3.981228286637499 0.1341601386487245 0.0
4.018771713398118 0.8658398609794804 0.0
4.757705393330306 0.6277793253200102 0.0
3.245404476813698 0.3720431195654205 0.0
3.262406961538709 0.609092082228193 0.0
4.738552632749474 0.3854106153034425 0.0
4.980576921401999 0.1828043249223437 0.0
3.019423077460087 0.8171956749482756 0.0
4.975386875116307 0.8288560892267683 0.0
3.024613123995747 0.1711439108946455 0.0
7.537862127958827 0.7914398748884439 0.0
0.46213787149577 0.7914398749623154 0.0
4.150965283491015 0.1232311208167031 0.0
3.849034718225983 0.8767688792466098 0.0
0.6330166515036239 0.5212993800799176 0.0
7.366983347335347 0.5212993798709434 0.0
5.001451172914062 0.4591396125040952 0.0
2.998548825585332 0.5408603877155073 0.0
5.250532135494552 0.1623854812497458 0.0
5.24999687257574 0.8404382486850067 0.0
2.749794930508214 0.8396380739052673 0.0
2.749676059914328 0.161585306286623 0.0
1.150631951549359 0.5017906253149568 0.0
6.85747267660715 0.5137706215776152 0.0
2.938770240933895 0.3859183074771494 0.0
5.061229757952985 0.6140816927005173 0.0
5.521883200863776 0.8371838481144578 0.0
5.520780843451154 0.1567733764659754 0.0
2.479219155991939 0.1567733759623464 0.0
2.478116798894765 0.8371838481096507 0.0
2.208224060227917 0.1725929992863016 0.0
2.214655190115911 0.821187355218689 0.0
5.791775938918927 0.8274070011383262 0.0
5.785558009721889 0.1789659155514431 0.0
5.243140500145841 0.3651007420679131 0.0
5.247758683472709 0.6318228659349833 0.0
2.748336099792684 0.6332079670712092 0.0
2.766145970608876 0.3583112578457802 0.0
2.500794992947401 0.4517155340697119 0.0
5.499205006433885 0.4517155344186723 0.0
3.472119223331378 0.69283875816516 0.0
4.527880773131323 0.6928387614752662 0.0
2.445947440949104 0.6396216022327238 0.0
5.554052558509333 0.6396216019605415 0.0
1.976669571201813 0.1631348676957265 0.0
[...]
POINT_DATA 494

VECTORS Velocity float
0.0000000000000000 0.0000000000000000 0.0
0.8198975024659758 -0.1380614021072076 0.0
0.0000000000000000 0.0000000000000000 0.0
0.0000000000000000 0.0000000000000000 0.0
0.0000000000000000 0.0000000000000000 0.0
0.0000000000000000 0.0000000000000000 0.0
0.0000000000000000 0.0000000000000000 0.0
0.0000000000000000 0.0000000000000000 0.0
0.0000000000000000 0.0000000000000000 0.0
0.0000000000000000 0.0000000000000000 0.0
0.0000000000000000 0.0000000000000000 0.0
0.0000000000000000 0.0000000000000000 0.0
0.0000000000000000 0.0000000000000000 0.0
0.0000000000000000 0.0000000000000000 0.0
0.0000000000000000 0.0000000000000000 0.0
0.0000000000000000 0.0000000000000000 0.0
0.0000000000000000 0.0000000000000000 0.0
0.0000000000000000 0.0000000000000000 0.0
0.0000000000000000 0.0000000000000000 0.0
0.0000000000000000 0.0000000000000000 0.0
0.0000000000000000 0.0000000000000000 0.0
0.0000000000000000 0.0000000000000000 0.0
0.0000000000000000 0.0000000000000000 0.0
0.0000000000000000 0.0000000000000000 0.0
0.0000000000000000 0.0000000000000000 0.0
0.0000000000000000 0.0000000000000000 0.0
0.0000000000000000 0.0000000000000000 0.0
0.0000000000000000 0.0000000000000000 0.0
0.0000000000000000 0.0000000000000000 0.0
0.0000000000000000 0.0000000000000000 0.0
0.0000000000000000 0.0000000000000000 0.0
0.0000000000000000 0.0000000000000000 0.0
0.0000000000000000 0.0000000000000000 0.0
0.0000000000000000 0.0000000000000000 0.0
0.0000000000000000 0.0000000000000000 0.0
0.0000000000000000 0.0000000000000000 0.0
0.0000000000000000 0.0000000000000000 0.0
0.0000000000000000 0.0000000000000000 0.0
0.0000000000000000 0.0000000000000000 0.0
0.0000000000000000 0.0000000000000000 0.0
0.0000000000000000 0.0000000000000000 0.0
0.0000000000000000 0.0000000000000000 0.0
0.0000000000000000 0.0000000000000000 0.0
0.0000000000000000 0.0000000000000000 0.0
0.0000000000000000 0.0000000000000000 0.0
0.0000000000000000 0.0000000000000000 0.0
0.0000000000000000 0.0000000000000000 0.0
0.0000000000000000 0.0000000000000000 0.0
0.0000000000000000 0.0000000000000000 0.0
0.0000000000000000 0.0000000000000000 0.0
0.0000000000000000 0.0000000000000000 0.0
0.0000000000000000 0.0000000000000000 0.0
0.0000000000000000 0.0000000000000000 0.0
0.0000000000000000 0.0000000000000000 0.0
1.0770899942751158 0.5443953372411282 0.0
0.9956022835242044 0.1378875727890846 0.0
0.9602298408254935 -0.0877929910253354 0.0
1.0633876389697856 -0.4539161286205694 0.0
0.0000000000000000 0.0000000000000000 0.0
0.0000000000000000 0.0000000000000000 0.0
0.0000000000000000 0.0000000000000000 0.0
0.0000000000000000 0.0000000000000000 0.0
0.0000000000000000 0.0000000000000000 0.0
0.0000000000000000 0.0000000000000000 0.0
0.0000000000000000 0.0000000000000000 0.0
0.0000000000000000 0.0000000000000000 0.0
0.0000000000000000 0.0000000000000000 0.0
0.0000000000000000 0.0000000000000000 0.0
0.0000000000000000 0.0000000000000000 0.0
0.0000000000000000 0.0000000000000000 0.0
0.0000000000000000 0.0000000000000000 0.0
0.0000000000000000 0.0000000000000000 0.0
0.0000000000000000 0.0000000000000000 0.0
0.0000000000000000 0.0000000000000000 0.0
0.0000000000000000 0.0000000000000000 0.0
0.0000000000000000 0.0000000000000000 0.0
0.0000000000000000 0.0000000000000000 0.0
0.0000000000000000 0.0000000000000000 0.0
0.0000000000000000 0.0000000000000000 0.0
0.0000000000000000 0.0000000000000000 0.0
0.0000000000000000 0.0000000000000000 0.0
0.0000000000000000 0.0000000000000000 0.0
0.0000000000000000 0.0000000000000000 0.0
0.0000000000000000 0.0000000000000000 0.0
0.0000000000000000 0.0000000000000000 0.0
0.0000000000000000 0.0000000000000000 0.0
0.0000000000000000 0.0000000000000000 0.0
0.0000000000000000 0.0000000000000000 0.0
0.0000000000000000 0.0000000000000000 0.0
0.0000000000000000 0.0000000000000000 0.0
0.0000000000000000 0.0000000000000000 0.0
0.0000000000000000 0.0000000000000000 0.0
0.0000000000000000 0.0000000000000000 0.0
0.0000000000000000 0.0000000000000000 0.0
0.0000000000000000 0.0000000000000000 0.0
0.0000000000000000 0.0000000000000000 0.0
0.0000000000000000 0.0000000000000000 0.0
0.0000000000000000 0.0000000000000000 0.0
0.0000000000000000 0.0000000000000000 0.0
0.0000000000000000 0.0000000000000000 0.0
0.0000000000000000 0.0000000000000000 0.0
0.0000000000000000 0.0000000000000000 0.0
0.0000000000000000 0.0000000000000000 0.0
0.0000000000000000 0.0000000000000000 0.0
1.0000000000000000 0.0000000000000000 0.0
1.0000000000000000 0.0000000000000000 0.0
1.0000000000000000 0.0000000000000000 0.0
1.0000000000000000 0.0000000000000000 0.0
0.0000000000000000 0.0000000000000000 0.0
0.0000000000000000 0.0000000000000000 0.0
0.0000000000000000 0.0000000000000000 0.0
0.0000000000000000 0.0000000000000000 0.0
0.0000000000000000 0.0000000000000000 0.0
0.0000000000000000 0.0000000000000000 0.0
0.0000000000000000 0.0000000000000000 0.0
0.0000000000000000 0.0000000000000000 0.0
0.0000000000000000 0.0000000000000000 0.0
0.0000000000000000 0.0000000000000000 0.0
0.0000000000000000 0.0000000000000000 0.0
0.0000000000000000 0.0000000000000000 0.0
1.6025845069857549 -0.0139758464193731 0.0
1.6048809690286703 0.0129085779886137 0.0
1.6375873744454978 -0.0118883044506360 0.0
1.6346674340165643 -0.0171339008438817 0.0
1.3423977706812102 0.0840385443546116 0.0
1.3674723200298071 0.0640584801821101 0.0
1.4113593398660893 -0.1091774616432213 0.0
1.3876430908963249 -0.1328388190067128 0.0
1.6118414089884336 0.0003855795605539 0.0
1.6113237975522963 -0.0086444191026480 0.0
1.5577635672374350 0.0057871268184378 0.0
1.5569120378942791 -0.0007987063871290 0.0
1.5731789403702536 -0.0318265210867605 0.0
1.5731965674614077 0.0167767441353455 0.0
1.6563383005790711 0.0098778463993134 0.0
1.6529479836979564 -0.0171860849238309 0.0
1.3191797187352028 0.3212333374683466 0.0
1.3186873650561366 0.3145039320629820 0.0
1.3687872136856412 0.0235446946663064 0.0
1.3521908106810947 -0.2350124529757648 0.0
1.3686506558520060 0.0179249067624203 0.0
1.3517709169920291 -0.2398592780676382 0.0
1.5492248905746950 0.0141508740425191 0.0
1.5329963596748315 -0.0339425253975128 0.0
1.3407127876251872 0.0041109576166804 0.0
1.3432798524512373 0.0042305670581642 0.0
1.2630884938122813 0.0025903029586190 0.0
1.2560771218557258 0.0001717790526312 0.0
1.3046086728693969 -0.0066558864071343 0.0
1.2115644174913787 -0.0147974587577175 0.0
1.1815863286569523 0.0084346556470166 0.0
1.3271441172014096 0.0034390736643749 0.0
1.4606687178162476 0.1368179726190008 0.0
1.4610509656872692 0.1346578229990893 0.0
1.4379426124363990 -0.2768117385810462 0.0
1.4438686877754547 -0.2819976408815287 0.0
1.4427287558157482 0.3601764507728575 0.0
1.4380097091403452 0.3571686100798558 0.0
1.1804117723285155 -0.0288724109491195 0.0
1.3025785436789270 -0.0079222421760170 0.0
1.2939319179310524 -0.0176046442984602 0.0
1.1849566269099303 -0.0315837953852796 0.0
1.0768232740310475 -0.0669085283711711 0.0
1.0832538139039403 -0.0569296099661459 0.0
1.0938750244422597 0.0424305193905912 0.0
1.1043157880652197 0.0281904772186500 0.0
1.2558345183169330 0.0044216099129732 0.0
1.2399880571492727 -0.0205406364399559 0.0
1.2447007410000557 0.0195694149059468 0.0
1.2501523715828178 -0.0013436586733170 0.0
1.4406368669911782 -0.0314296918207214 0.0
1.3204824078546078 0.0526840673096743 0.0
1.4457602733768979 0.0341423087872959 0.0
1.3121382561486505 -0.0464263739837979 0.0
1.5781779529140052 -0.2297931300209051 0.0
1.5778677493523485 -0.2290670968572447 0.0
1.1556582430079767 -0.0545759160156635 0.0
1.1801038210585768 0.0587446509085489 0.0
1.1431484484340915 -0.0574744816057205 0.0
1.1885256536818896 0.0474778848312118 0.0
1.4287061742518532 0.0325443926441055 0.0
1.4397345452028030 -0.0300412303811916 0.0
1.2951208536272947 -0.1607666916538782 0.0
1.2810392499495864 0.1936053033007507 0.0
1.1905837405057502 0.0497021520651893 0.0
1.1384215212467466 -0.0052239963873782 0.0
1.1867407097796780 -0.0375820455187886 0.0
1.1538886461193802 0.0307118571035560 0.0
1.2894339116233797 0.0085744492155695 0.0
1.2968059907623808 -0.0147277192031021 0.0
1.1557571505365183 0.0378467338023329 0.0
1.2188060373016982 -0.0663834308051263 0.0
1.1578300310194889 0.0410832117511948 0.0
1.2164421272943695 -0.0648512158642938 0.0
1.1690529623736181 0.0696183521123781 0.0
1.1453089161381946 -0.0396648625816868 0.0
1.0987702161824497 -0.0578402782001827 0.0
1.2059348582198510 0.0510134583132792 0.0
1.1028142731972377 -0.0234539945195404 0.0
1.0962945973676927 0.0190317206751577 0.0
1.6141479677959722 0.0083929050545512 0.0
1.6166438374786349 -0.0002965931645535 0.0
1.4895397798830319 0.0316448842896258 0.0
1.5103303287104481 -0.0679823290583596 0.0
0.4725240437622073 -0.0142416055899198 0.0
0.4541885205926283 -0.0162392360823817 0.0
0.5704801742631551 0.1070898556771545 0.0
0.5900267513276863 0.1062105282456523 0.0
1.4647302905659627 0.4479781039341750 0.0
1.4600192283096476 0.4446115176874727 0.0
1.5447677888781144 -0.3607196008946269 0.0
1.5468898579296084 -0.3623802721129181 0.0
0.9911703734617742 0.0345105774023961 0.0
0.9919106459599237 0.0448451503456165 0.0
1.6127811680930118 0.0321889121139698 0.0
1.6048600189670990 -0.0437330908281394 0.0
1.1586308510400416 0.1959207974089085 0.0
1.1963158117190158 -0.2744908971971831 0.0
1.5328001209592179 -0.0544179104401823 0.0
1.5062076944452041 0.0103302990634834 0.0
0.7367694261140921 -0.0068621347763190 0.0
0.7585948107339331 0.0054219986000488 0.0
0.8932530366471889 -0.0167941385581194 0.0
0.9099051724010935 -0.0198978688136228 0.0
0.9252801369301050 0.0048035624376884 0.0
0.9109251629268312 0.0044884060886438 0.0
1.5785503153012457 -0.0264379776773661 0.0
1.5785566547195444 -0.0565528224728458 0.0
0.6642980870827041 -0.0835823384746033 0.0
0.6621251887645230 -0.0843602978573583 0.0
0.7117643824957960 0.0639403203198308 0.0
0.7099641056466202 0.0627389264590074 0.0
1.4963570699454845 0.0493883323801340 0.0
1.4969480634738188 0.0321448963178194 0.0
0.8991881735011419 -0.1255195684018166 0.0
0.8997462157434325 -0.1288153057551910 0.0
1.3577959403438171 0.0009218408192047 0.0
1.2764951098840911 0.0145069470978423 0.0
1.0038651462225621 -0.0947300731501951 0.0
1.0042169934901155 -0.0945491371867782 0.0
1.5175916356685615 -0.0271127258583251 0.0
1.5221362507716045 -0.0295293204565573 0.0
1.4873019165486572 0.0373327792151065 0.0
1.4902716370987921 0.0444977166964811 0.0
0.7497380613396809 -0.0084009950190368 0.0
0.7535800544568987 -0.0067709587156047 0.0
0.7041482357363225 0.0218088470951834 0.0
0.6934448985950262 0.0197304506040516 0.0
0.8169641292349198 0.0369461990417492 0.0
0.8405816717077065 -0.0645689099785185 0.0
0.7455686507639518 0.0909064274350271 0.0
0.7482364730883749 0.0879390772247746 0.0
1.5783132554387354 -0.0105963793673153 0.0
1.5883260404978441 0.0054686067107645 0.0
1.5938503498690677 -0.0079032223197863 0.0
1.5948688087869933 -0.0059064859201567 0.0
0.7018946370923371 -0.0033707391336410 0.0
0.7264576464586903 0.0265055980775941 0.0
0.7061467373344374 -0.0128911584339480 0.0
0.7051973999787846 0.0192474236693892 0.0
1.6270030966274660 -0.0024624156206101 0.0
1.6301191041097298 -0.0438207304225611 0.0
1.5215121138495167 -0.0093613445816506 0.0
1.5229829734048128 -0.0135138439940550 0.0
0.7147415692592256 -0.0106768179261615 0.0
0.6381276286768023 0.0177539286995490 0.0
0.6510482188503394 -0.0200141612318431 0.0
0.6959925825069784 0.0087057733331784 0.0
0.8047104581891122 0.0297934796392583 0.0
0.7785687748485608 -0.0223490988551937 0.0
0.8088611207477110 0.0208811910438981 0.0
0.7930996148428574 -0.0275088338428944 0.0
1.4136400050127764 -0.0104073456583163 0.0
1.4385146109876590 0.0015658868054003 0.0
1.4163942005641874 -0.0010746021762020 0.0
1.4391058785075974 0.0085837852769808 0.0
1.5794220694112828 0.0010500415707828 0.0
1.5674676415824624 -0.0108543887192510 0.0
1.3116579218188604 0.0069836076409903 0.0
1.3572299491303399 -0.0273875387341375 0.0
1.4084322382388814 0.0023187696704240 0.0
1.4166003450146851 -0.0139807103005708 0.0
0.7206468371016417 -0.0170332115502470 0.0
0.6702788008283108 0.0188003920746837 0.0
0.7225939519286130 -0.0182993888727304 0.0
0.6715500327447101 0.0204829496174431 0.0
0.5564417459504840 -0.1176118713773288 0.0
0.5608344498651365 -0.1123317910675092 0.0
1.2859645739892580 0.1192448266629807 0.0
1.2851723240994961 0.1168865908722987 0.0
1.4216601674085032 -0.0166057164320661 0.0
1.3839390740493192 -0.0410777103323224 0.0
1.3873768218370237 0.0221930386951954 0.0
1.4232803607475066 -0.0031714099115008 0.0
0.7984993668097218 -0.0654061785003640 0.0
0.7977204704598786 0.0751427602387335 0.0
1.1243904612772133 -0.1584670480679409 0.0
1.1253190015966508 -0.1553754326903601 0.0
1.1268873994530049 0.2250807462344048 0.0
1.1221191386664082 0.2259269679212443 0.0
0.8466487430937399 -0.0429036716375504 0.0
0.8063820982226935 0.0488101405384738 0.0
0.8425079697868245 -0.0381527079335570 0.0
0.8119139244980554 0.0556573847343011 0.0
1.5546826097876667 -0.0100592572677774 0.0
1.5552053160438506 -0.0201067254414661 0.0
0.6851927552584409 -0.0211855990057612 0.0
0.7026495779107664 0.0035386497344133 0.0
0.6460647782166927 0.0250194661510474 0.0
0.7320463247599593 0.0423552026949281 0.0
0.6601870866836548 0.0020079459146271 0.0
0.6653153216526733 -0.0025305913409327 0.0
1.4083671269444031 -0.2121258222410290 0.0
1.4058373340008181 -0.2028582647899381 0.0
1.2673291325906861 0.2639963365105951 0.0
1.2684618074692011 0.2469727771731226 0.0
0.4752995561696028 -0.0511671556837851 0.0
0.4840222456191783 -0.0504664657732426 0.0
0.4811552601715985 0.0525656133901790 0.0
0.4903328430728658 0.0508863363319971 0.0
1.4015330750501203 -0.0056963990995476 0.0
1.4040800918578720 -0.0032084641767864 0.0
1.4304600826705862 -0.1609016564614315 0.0
1.4466731448601362 -0.1597882648934706 0.0
1.4482700375561266 0.1787493339787636 0.0
1.4283071784110082 0.1746347269269080 0.0
0.8531030239963951 0.0395189746896390 0.0
0.7431821249256023 -0.1088339062246569 0.0
0.8382151076358454 0.0514561210752942 0.0
0.7625387205864741 -0.0921238377959769 0.0
1.3978158964291831 -0.0448946994177443 0.0
1.3692606308594641 0.0515468157387328 0.0
1.3930742365604518 -0.0368185266556157 0.0
1.3723093934711141 0.0606905133325532 0.0
1.5104324783394780 0.0019586249135395 0.0
1.5090272025791669 -0.0312112502515857 0.0
0.6468263840285959 0.0022747918892099 0.0
0.6492229036437893 0.0042975692379242 0.0
1.3903242939164766 0.0804325289877127 0.0
1.4035110225199283 0.0528490175526996 0.0
1.5196428823873964 -0.0422965583192206 0.0
1.4950662178078555 0.0461557403673900 0.0
0.6983115451642987 0.0928567960076130 0.0
0.6852928778260461 0.1007034382204163 0.0
1.4632389295073776 -0.0289252764594701 0.0
1.4141240376212536 0.0354203096046567 0.0
1.4131981532239735 -0.0492526275591957 0.0
1.4631525508495522 0.0044334163551161 0.0
1.6339786120025974 0.0202794584653550 0.0
1.6473002499893723 -0.0274645903514288 0.0
0.5027554724629253 0.0000374026070583 0.0
0.5007251752831394 0.0019670751783712 0.0
1.5293053608555056 -0.0327400720269877 0.0
1.5260026494983985 0.0321804274396661 0.0
0.9373901061687213 0.2269662336716299 0.0
0.9059515945238942 -0.2232167635578552 0.0
1.5176684840763501 -0.0160470394573752 0.0
1.5139310827066748 -0.0062229522925923 0.0
1.3084815965629182 0.0040678331796302 0.0
1.3535400318544968 -0.0285281973848550 0.0
1.3232884239370513 -0.0187477340783393 0.0
1.3282270195025101 -0.0168210510440069 0.0
1.2052743849931664 -0.1207660492882705 0.0
1.2053320541745098 -0.1207074710519110 0.0
1.4978242382313378 -0.0154029317041531 0.0
1.4474267195646955 -0.0049504963730285 0.0
1.4527058999874829 -0.0305766415812040 0.0
1.4407907657672410 0.0319173027707483 0.0
1.5052647603123628 -0.0216294774796390 0.0
1.4530967470863376 0.0014116126206240 0.0
0.4285848211357383 0.0470468165964622 0.0
0.4312765837776942 0.0439719343992752 0.0
0.4243157456465718 -0.0309563832953699 0.0
0.4171664499830577 -0.0340526817008685 0.0
1.4352909095224484 -0.3324336671046285 0.0
1.4365047213520410 -0.3357716337299561 0.0
0.3968136977575119 0.0067344523700143 0.0
0.4059987578342820 -0.0109617574219620 0.0
1.5114113666320268 0.3290053917000793 0.0
1.5127920280419345 0.3234811627326666 0.0
0.5929172013169431 0.0991741669451135 0.0
0.5937254466008389 0.0980247501268596 0.0
1.5182333167510293 0.0239087048661398 0.0
1.5220190763763062 -0.0231334844656792 0.0
1.3284443221801381 -0.0151400121311060 0.0
1.3428745445837846 0.0131254883160809 0.0
1.4609836895617501 -0.3815222807621385 0.0
1.4565222644755094 -0.3767635111084931 0.0
1.3989308783268060 0.4882555205966709 0.0
1.4086517908400527 0.4858473830943481 0.0
1.5915167724581858 0.0109342922462237 0.0
1.5886071813628766 0.0127369738099986 0.0
0.4854930582224229 0.0541443308632302 0.0
0.4638093036459061 -0.0607300403129735 0.0
0.4781484270851956 0.0583483773969483 0.0
0.4741979651528581 -0.0568953506975889 0.0
0.3829166813801976 0.0283383836353335 0.0
0.4046223791675188 0.0284678662189342 0.0
0.4170626558497002 -0.0153659312214573 0.0
0.4397736412335774 -0.0166270764717334 0.0
1.2521490186537971 -0.2060897772826873 0.0
1.2699236960897708 -0.2081261199761235 0.0
1.2787397003222840 0.2825550551769990 0.0
1.2619646206125972 0.2808192196607799 0.0
1.2073900340363131 -0.2716978164957386 0.0
1.1809279184580936 0.2659614823334200 0.0
1.4518750529638134 0.0020818765525019 0.0
1.4589201327277168 0.0164174493561426 0.0
0.5094039609077616 -0.0093599459033081 0.0
0.4835999360750694 -0.0005578543601595 0.0
0.5205170950355316 0.0144715955116409 0.0
0.4979571768537495 0.0044893075972332 0.0
1.4872137364603266 -0.0226530331577856 0.0
1.4747174614451244 0.0048973370597557 0.0
1.3351393465630048 -0.0265808708494746 0.0
1.3354721085326888 -0.0235447210024029 0.0
0.8719121042056270 0.2643809494282602 0.0
0.9351787114878026 -0.2433837796248581 0.0
1.0391618007718775 0.0734071857631965 0.0
1.0465505112698057 0.0794290362085569 0.0
1.0560964876388335 -0.0962474380895042 0.0
1.0578014199098988 -0.0989422443751196 0.0
0.6354309849473000 -0.1341551935840729 0.0
0.6495954794861841 0.1423253286473411 0.0
0.2849055943408256 -0.0240408465464971 0.0
0.2882232197877362 -0.0234234748756293 0.0
0.2944921562650974 -0.0107939181612930 0.0
0.2930192506684635 -0.0107911831517353 0.0
0.3558375655295284 -0.0116037870176019 0.0
0.3554554401100849 0.0117710563045973 0.0
1.2240498630521297 0.3285982844425365 0.0
1.1734776092477321 -0.2645115292695825 0.0
0.5059494695041664 -0.0602607975916396 0.0
0.4941955501002481 0.0720553984295245 0.0
0.5055672121051956 -0.0594892359717318 0.0
0.4950447568068163 0.0738969215408831 0.0
1.4849175107180053 0.0479403948934977 0.0
1.4960586107860978 -0.0609526131625009 0.0
0.4520012219369650 0.0758277557463860 0.0
0.5224889419634760 -0.1242584348521695 0.0
0.9605128590663164 0.0636606307337356 0.0
0.9568761163421193 0.0619491628646485 0.0
0.9851816847418561 -0.0606218667101204 0.0
0.9859368954555354 -0.0608313540463517 0.0
0.8776603484474387 0.0304498907451360 0.0
0.8781959148276042 0.0395160135968135 0.0
0.5326866121097588 0.0441324809474807 0.0
0.5070134287108420 -0.0573528757699117 0.0
0.5299598274049242 0.0426094041156278 0.0
0.5055484976764593 -0.0576535105520870 0.0
1.5447248284373243 -0.0062009561946554 0.0
1.5404688642417361 -0.0033944400206872 0.0
0.4240548994447690 -0.0720973426163006 0.0
0.4744884975918627 0.0498554950420072 0.0
0.4586708561745779 0.0611499289100608 0.0
0.4444726866975754 -0.0607860216825190 0.0
1.0081636995082741 0.0408893865986423 0.0
1.0448676732858562 0.0425461546994113 0.0
1.0760471616674667 -0.0561856403897929 0.0
1.0498517094413939 -0.0602000079350637 0.0
1.3118777871392200 0.0208515644527881 0.0
1.3099415846329205 0.0278042858020794 0.0
1.3543800369862418 -0.0674845226493674 0.0
1.3691187693033930 -0.0393313757100483 0.0
1.0555833687154867 -0.1249549024488859 0.0
1.0500663505625494 -0.1319871738380655 0.0
0.5283816776044535 -0.0013941209946499 0.0
0.5302007914839801 0.0080726725657259 0.0
0.5363181410966011 0.0041390148719320 0.0
0.5198644266109960 -0.0061738090803411 0.0