# vtk DataFile Version 3.0
LucasCarvalhoTCC Results
ASCII

DATASET POLYDATA
FIELD FieldData 1
TIME 1 1 double
1.6

POINTS 494 float
0.0 0.0 0.0
8.0 0.0 0.0
8.0 1.0 0.0
0.0 1.0 0.0
4.0 0.0 0.0
4.0 1.0 0.0
4.0 0.35 0.0
4.0 0.65 0.0
0.2010296266416496 1.0 0.0
0.3986915135488555 1.0 0.0
0.5930420631591132 1.0 0.0
0.7841367769318693 1.0 0.0
0.9720301907499852 1.0 0.0
1.156775924166146 1.0 0.0
1.33842670621592 1.0 0.0
1.517034389070868 1.0 0.0
1.69264994674003 1.0 0.0
1.865323550794866 1.0 0.0
2.035104414722059 1.0 0.0
2.202040983487818 1.0 0.0
2.366180993436638 1.0 0.0
2.527571282866703 1.0 0.0
2.686257831390245 1.0 0.0
2.842286022819771 1.0 0.0
2.995700353514032 1.0 0.0
3.146544637914273 1.0 0.0
3.294861880721452 1.0 0.0
3.440694398353104 1.0 0.0
3.58408394609007 1.0 0.0
3.725071294102791 1.0 0.0
3.863696788294668 1.0 0.0
4.136303211705004 1.0 0.0
4.274928705896546 1.0 0.0
4.415916053908917 1.0 0.0
4.55930560164552 1.0 0.0
4.7051381192768 1.0 0.0
4.853455362083593 1.0 0.0
5.004299646483437 1.0 0.0
5.157713977177285 1.0 0.0
5.313742168606385 1.0 0.0
5.472428717129489 1.0 0.0
5.6338190065591 1.0 0.0
5.797959016507455 1.0 0.0
5.96489558527273 1.0 0.0
6.134676449200184 1.0 0.0
6.307350053255487 1.0 0.0
6.482965610925135 1.0 0.0
6.661573293780584 1.0 0.0
6.843224075830887 1.0 0.0
7.027969809247587 1.0 0.0
7.215863223066262 1.0 0.0
7.4069579368396 1.0 0.0
7.601308486450315 1.0 0.0
7.798970373357896 1.0 0.0
8.0 0.7999999999999996 0.0
8.0 0.6000000000013874 0.0
8.0 0.4000000000016649 0.0
8.0 0.2000000000008324 0.0
7.798970373357898 0.0 0.0
7.601308486450317 0.0 0.0
7.406957936839601 0.0 0.0
7.215863223066265 0.0 0.0
7.02796980924759 0.0 0.0
6.843224075830888 0.0 0.0
6.661573293780592 0.0 0.0
6.482965610925139 0.0 0.0
6.307350053255492 0.0 0.0
6.134676449200188 0.0 0.0
5.964895585272735 0.0 0.0
5.797959016507459 0.0 0.0
5.633819006559103 0.0 0.0
5.472428717129493 0.0 0.0
5.313742168606389 0.0 0.0
5.157713977177288 0.0 0.0
5.004299646483441 0.0 0.0
4.853455362083597 0.0 0.0
4.705138119276803 0.0 0.0
4.559305601645523 0.0 0.0
4.415916053908919 0.0 0.0
4.274928705896549 0.0 0.0
4.136303211705007 0.0 0.0
3.863696788294383 0.0 0.0
3.725071294102209 0.0 0.0
3.584083946089184 0.0 0.0
3.440694398352564 0.0 0.0
3.29486188072223 0.0 0.0
3.146544637916415 0.0 0.0
2.995700353517581 0.0 0.0
2.842286022824779 0.0 0.0
2.68625783139676 0.0 0.0
2.527571282874774 0.0 0.0
2.366180993446318 0.0 0.0
2.202040983499156 0.0 0.0
2.035104414735112 0.0 0.0
1.865323550807426 0.0 0.0
1.692649946751479 0.0 0.0
1.517034389081164 0.0 0.0
1.338426706225015 0.0 0.0
1.156775924174005 0.0 0.0
0.9720301907565596 0.0 0.0
0.784136776937109 0.0 0.0
0.5930420631629705 0.0 0.0
0.3986915135514271 0.0 0.0
0.2010296266429896 0.0 0.0
0.0 0.199999999999558 0.0
0.0 0.3999999999989746 0.0
0.0 0.5999999999989464 0.0
0.0 0.7999999999994731 0.0
4.065082561150232 0.3648546699507293 0.0
4.117274722996153 0.4064765305061043 0.0
4.146239186965635 0.4666218605127571 0.0
4.146239186588658 0.5333781411388893 0.0
4.117274722147235 0.5935234705584039 0.0
4.065082560620447 0.6351453303044018 0.0
3.934917439190226 0.6351453302132268 0.0
3.882725277520537 0.5935234701418048 0.0
3.853760813071839 0.5333781396514286 0.0
3.853760813263242 0.4666218595099774 0.0
3.882725277782338 0.4064765295299076 0.0
3.934917439246251 0.3648546697597932 0.0
3.348071016817302 0.5037366844559412 0.0
4.65817771841185 0.4813089492125461 0.0
5.148432135339639 0.5000000000000013 0.0
2.851567863014233 0.5000000000000465 0.0
4.406326506211093 0.3072680842959042 0.0
3.575604791543614 0.6706702532911111 0.0
4.424395205595821 0.6706702556565258 0.0
3.593673497058965 0.3072680820819204 0.0
5.648652107845511 0.5000000000000006 0.0
2.351347890458042 0.4999999999998563 0.0
1.851146954963573 0.4999999999998219 0.0
6.148853043290459 0.4999999999999989 0.0
6.65089532386231 0.5241211434250735 0.0
1.349104674975677 0.4758788558671475 0.0
7.150713697794147 0.4858064203922342 0.0
0.8492863006035025 0.4858064203396458 0.0
4.216343713145164 0.2287135668575249 0.0
3.7836562881134 0.7712864338025908 0.0
4.346988371127422 0.5000000019594898 0.0
4.213775907987267 0.7756803165215952 0.0
3.653011628408684 0.4999999990051173 0.0
3.786224091202296 0.224319683220954 0.0
7.572712389010231 0.5763628491757339 0.0
0.4272876103144935 0.5763628498169726 0.0
4.881741322202974 0.3185523670790996 0.0
3.118258676783759 0.6814476337404539 0.0
3.126854924363118 0.2792890251323842 0.0
4.873145074373641 0.7207109754187309 0.0
5.398381996912613 0.291094588046412 0.0
5.396092528392672 0.7230702977293901 0.0
2.603907471650227 0.7230702981371074 0.0
2.601618001742297 0.2910945873520305 0.0
4.065645388412852 0.1903894420877926 0.0
3.934354612281609 0.8096105573695707 0.0
4.268393145079946 0.6292513280674802 0.0
3.731606853978594 0.3707486723017213 0.0
4.265062587797852 0.3723525870906427 0.0
3.734937412407246 0.6276474138958879 0.0
5.89991820844496 0.720584760457478 0.0
5.899661142431216 0.2940789491313893 0.0
2.100338856207466 0.7059210507243335 0.0
2.100081790085733 0.2794152396968363 0.0
4.648216390708278 0.2460745758417431 0.0
3.350865525112209 0.7519279174007294 0.0
3.351783614314077 0.2460745727859678 0.0
4.649134469923633 0.7519279206208029 0.0
6.386000070083336 0.2800687217561524 0.0
6.399946740387701 0.7091877900019353 0.0
1.613999929083956 0.7199312783619409 0.0
1.600053258667474 0.2908122092889953 0.0
1.099018086220021 0.3101534564461602 0.0
1.099018086220183 0.6898465435530818 0.0
6.900981912171285 0.3101534566801202 0.0
6.900981912171287 0.689846543319878 0.0
3.934891793257755 0.2336799984692873 0.0
4.065108206439434 0.7663200008196746 0.0
5.133077706310633 0.254681732561614 0.0
5.131620328745691 0.7509194919064351 0.0
2.866922291796803 0.7453182673725732 0.0
2.868379670398546 0.2490805081265555 0.0
0.5973224633027379 0.3123440263675117 0.0
7.402677535116692 0.3123440263206204 0.0
7.70928508668797 0.2984218335093966 0.0
0.2907149122204558 0.2984218350042115 0.0
2.359042531710287 0.2526358364218651 0.0
2.362552667743482 0.7498876177132479 0.0
5.640957467742433 0.2526358368965552 0.0
5.637447332034727 0.7498876177447886 0.0
7.330771635020911 0.7204300868765696 0.0
0.6692283641678903 0.7204300870263377 0.0
6.141991504218947 0.7500064293114952 0.0
6.143214654121697 0.2541610692540839 0.0
1.858008494097047 0.2499935706645152 0.0
1.856785344746094 0.7458389307817799 0.0
1.360037479834015 0.7503851535261052 0.0
1.363297687800482 0.2332108063209677 0.0
6.636702311691573 0.7667891933666813 0.0
6.639962519949044 0.2496148464378299 0.0
7.14328150074831 0.2292696686424185 0.0
0.8567184978980538 0.2292696684503961 0.0
4.845173759433459 0.5000000012080886 0.0
3.15482623877425 0.4999999993865263 0.0
3.514470413944982 0.5755907957035395 0.0
4.485529584365944 0.5755907996488695 0.0
4.350214515329574 0.8947484376274254 0.0
3.64978548377064 0.1052515623441257 0.0
4.356280753270322 0.1397878825788729 0.0
3.643719248073251 0.8602121180766233 0.0
4.157657982820168 0.3023031440803671 0.0
3.842342017851872 0.6976968563131654 0.0
4.149794964153143 0.6947625877680722 0.0
3.850205035403508 0.3052374120341299 0.0
4.252863769441745 0.5000000013253333 0.0
3.747136230269581 0.4999999993774377 0.0
2.66150837620265 0.4835883053501762 0.0
5.338491622258749 0.4835883052760253 0.0
7.732076714471282 0.7613785341653052 0.0
0.267923285219987 0.7613785345749642 0.0
3.482582425594127 0.3988584940714734 0.0
4.517417574829351 0.3988584973195787 0.0
7.120961454429095 0.7969630876933931 0.0
0.8790385446795201 0.7969630878928393 0.0
4.524178509919695 0.1937066442020419 0.0
3.472973035782958 0.803602443762734 0.0
4.527026959328886 0.8036024455277256 0.0
3.475821495314308 0.1937066425220846 0.0
5.834485749168302 0.4775259269822466 0.0
2.16551424934095 0.5224740729963462 0.0
4.803832126993392 0.8343163881584211 0.0
3.196167871756218 0.1656836120733276 0.0
3.196167870279283 0.834316388182051 0.0
4.803832130306974 0.1656836112805605 0.0
1.646902821176459 0.5088844228822333 0.0
6.35309717778631 0.4911155766888507 0.0
4.128745436683365 0.8608937921704661 0.0
3.871254562700506 0.1391062074145501 0.0
7.783519314041498 0.4824599318584197 0.0
0.2164806854160975 0.4824599323519634 0.0
3.981228286637499 0.1341601386487245 0.0
4.018771713398118 0.8658398609794804 0.0
4.757705393330306 0.6277793253200102 0.0
3.245404476813698 0.3720431195654205 0.0
3.262406961538709 0.609092082228193 0.0
4.738552632749474 0.3854106153034425 0.0
4.980576921401999 0.1828043249223437 0.0
3.019423077460087 0.8171956749482756 0.0
4.975386875116307 0.8288560892267683 0.0
3.024613123995747 0.1711439108946455 0.0
7.537862127958827 0.7914398748884439 0.0
0.46213787149577 0.7914398749623154 0.0
4.150965283491015 0.1232311208167031 0.0
3.849034718225983 0.8767688792466098 0.0
0.6330166515036239 0.5212993800799176 0.0
7.366983347335347 0.5212993798709434 0.0
5.001451172914062 0.4591396125040952 0.0
2.998548825585332 0.5408603877155073 0.0
5.250532135494552 0.1623854812497458 0.0
5.24999687257574 0.8404382486850067 0.0
2.749794930508214 0.8396380739052673 0.0
2.749676059914328 0.161585306286623 0.0
1.150631951549359 0.5017906253149568 0.0
6.85747267660715 0.5137706215776152 0.0
2.938770240933895 0.3859183074771494 0.0
5.061229757952985 0.6140816927005173 0.0
5.521883200863776 0.8371838481144578 0.0
5.520780843451154 0.1567733764659754 0.0
2.479219155991939 0.1567733759623464 0.0
2.478116798894765 0.8371838481096507 0.0
2.208224060227917 0.1725929992863016 0.0
2.214655190115911 0.821187355218689 0.0
5.791775938918927 0.8274070011383262 0.0
5.785558009721889 0.1789659155514431 0.0
5.243140500145841 0.3651007420679131 0.0
5.247758683472709 0.6318228659349833 0.0
2.748336099792684 0.6332079670712092 0.0
2.766145970608876 0.3583112578457802 0.0
2.500794992947401 0.4517155340697119 0.0
5.499205006433885 0.4517155344186723 0.0
3.472119223331378 0.69283875816516 0.0
4.527880773131323 0.6928387614752662 0.0
2.445947440949104 0.6396216022327238 0.0
5.554052558509333 0.6396216019605415 0.0
1.976669571201813 0.1631348676957265 0.0
[...]
POINT_DATA 494

VECTORS Velocity float
0.0000000000000000 0.0000000000000000 0.0
0.8200301323472855 -0.1378982808294447 0.0
0.0000000000000000 0.0000000000000000 0.0
0.0000000000000000 0.0000000000000000 0.0
0.0000000000000000 0.0000000000000000 0.0
0.0000000000000000 0.0000000000000000 0.0
0.0000000000000000 0.0000000000000000 0.0
0.0000000000000000 0.0000000000000000 0.0
0.0000000000000000 0.0000000000000000 0.0
0.0000000000000000 0.0000000000000000 0.0
0.0000000000000000 0.0000000000000000 0.0
0.0000000000000000 0.0000000000000000 0.0
0.0000000000000000 0.0000000000000000 0.0
0.0000000000000000 0.0000000000000000 0.0
0.0000000000000000 0.0000000000000000 0.0
0.0000000000000000 0.0000000000000000 0.0
0.0000000000000000 0.0000000000000000 0.0
0.0000000000000000 0.0000000000000000 0.0
0.0000000000000000 0.0000000000000000 0.0
0.0000000000000000 0.0000000000000000 0.0
0.0000000000000000 0.0000000000000000 0.0
0.0000000000000000 0.0000000000000000 0.0
0.0000000000000000 0.0000000000000000 0.0
0.0000000000000000 0.0000000000000000 0.0
0.0000000000000000 0.0000000000000000 0.0
0.0000000000000000 0.0000000000000000 0.0
0.0000000000000000 0.0000000000000000 0.0
0.0000000000000000 0.0000000000000000 0.0
0.0000000000000000 0.0000000000000000 0.0
0.0000000000000000 0.0000000000000000 0.0
0.0000000000000000 0.0000000000000000 0.0
0.0000000000000000 0.0000000000000000 0.0
0.0000000000000000 0.0000000000000000 0.0
0.0000000000000000 0.0000000000000000 0.0
0.0000000000000000 0.0000000000000000 0.0
0.0000000000000000 0.0000000000000000 0.0
0.0000000000000000 0.0000000000000000 0.0
0.0000000000000000 0.0000000000000000 0.0
0.0000000000000000 0.0000000000000000 0.0
0.0000000000000000 0.0000000000000000 0.0
0.0000000000000000 0.0000000000000000 0.0
0.0000000000000000 0.0000000000000000 0.0
0.0000000000000000 0.0000000000000000 0.0
0.0000000000000000 0.0000000000000000 0.0
0.0000000000000000 0.0000000000000000 0.0
0.0000000000000000 0.0000000000000000 0.0
0.0000000000000000 0.0000000000000000 0.0
0.0000000000000000 0.0000000000000000 0.0
0.0000000000000000 0.0000000000000000 0.0
0.0000000000000000 0.0000000000000000 0.0
0.0000000000000000 0.0000000000000000 0.0
0.0000000000000000 0.0000000000000000 0.0
0.0000000000000000 0.0000000000000000 0.0
0.0000000000000000 0.0000000000000000 0.0
1.0775038167632145 0.5410372674213016 0.0
0.9955659529208699 0.1334802916570012 0.0
0.9606269205953706 -0.0903390496722888 0.0
1.0634619673088064 -0.4535869431328833 0.0
0.0000000000000000 0.0000000000000000 0.0
0.0000000000000000 0.0000000000000000 0.0
0.0000000000000000 0.0000000000000000 0.0
0.0000000000000000 0.0000000000000000 0.0
0.0000000000000000 0.0000000000000000 0.0
0.0000000000000000 0.0000000000000000 0.0
0.0000000000000000 0.0000000000000000 0.0
0.0000000000000000 0.0000000000000000 0.0
0.0000000000000000 0.0000000000000000 0.0
0.0000000000000000 0.0000000000000000 0.0
0.0000000000000000 0.0000000000000000 0.0
0.0000000000000000 0.0000000000000000 0.0
0.0000000000000000 0.0000000000000000 0.0
0.0000000000000000 0.0000000000000000 0.0
0.0000000000000000 0.0000000000000000 0.0
0.0000000000000000 0.0000000000000000 0.0
0.0000000000000000 0.0000000000000000 0.0
0.0000000000000000 0.0000000000000000 0.0
0.0000000000000000 0.0000000000000000 0.0
0.0000000000000000 0.0000000000000000 0.0
0.0000000000000000 0.0000000000000000 0.0
0.0000000000000000 0.0000000000000000 0.0
0.0000000000000000 0.0000000000000000 0.0
0.0000000000000000 0.0000000000000000 0.0
0.0000000000000000 0.0000000000000000 0.0
0.0000000000000000 0.0000000000000000 0.0
0.0000000000000000 0.0000000000000000 0.0
0.0000000000000000 0.0000000000000000 0.0
0.0000000000000000 0.0000000000000000 0.0
0.0000000000000000 0.0000000000000000 0.0
0.0000000000000000 0.0000000000000000 0.0
0.0000000000000000 0.0000000000000000 0.0
0.0000000000000000 0.0000000000000000 0.0
0.0000000000000000 0.0000000000000000 0.0
0.0000000000000000 0.0000000000000000 0.0
0.0000000000000000 0.0000000000000000 0.0
0.0000000000000000 0.0000000000000000 0.0
0.0000000000000000 0.0000000000000000 0.0
0.0000000000000000 0.0000000000000000 0.0
0.0000000000000000 0.0000000000000000 0.0
0.0000000000000000 0.0000000000000000 0.0
0.0000000000000000 0.0000000000000000 0.0
0.0000000000000000 0.0000000000000000 0.0
0.0000000000000000 0.0000000000000000 0.0
0.0000000000000000 0.0000000000000000 0.0
0.0000000000000000 0.0000000000000000 0.0
1.0000000000000000 0.0000000000000000 0.0
1.0000000000000000 0.0000000000000000 0.0
1.0000000000000000 0.0000000000000000 0.0
1.0000000000000000 0.0000000000000000 0.0
0.0000000000000000 0.0000000000000000 0.0
0.0000000000000000 0.0000000000000000 0.0
0.0000000000000000 0.0000000000000000 0.0
0.0000000000000000 0.0000000000000000 0.0
0.0000000000000000 0.0000000000000000 0.0
0.0000000000000000 0.0000000000000000 0.0
0.0000000000000000 0.0000000000000000 0.0
0.0000000000000000 0.0000000000000000 0.0
0.0000000000000000 0.0000000000000000 0.0
0.0000000000000000 0.0000000000000000 0.0
0.0000000000000000 0.0000000000000000 0.0
0.0000000000000000 0.0000000000000000 0.0
1.5151755147623576 -0.0003994548508808 0.0
1.5180743623903901 0.0172723722078097 0.0
1.6044926969174689 -0.0087603709410762 0.0
1.6022221363431834 -0.0207221791866184 0.0
1.3600780648241366 0.0567151300753066 0.0
1.3722059732739109 0.0503952368870575 0.0
1.3945305754419215 -0.0995457765797933 0.0
1.3816727446618686 -0.1103069268189102 0.0
1.5890233002991951 0.0032596920113839 0.0
1.5879546049482272 -0.0026908458074835 0.0
1.5433492524227808 0.0039532184911065 0.0
1.5422836988319939 -0.0006544454677603 0.0
1.5608221902635275 -0.0294365340325461 0.0
1.5612456857833461 0.0138533244115045 0.0
1.6432552537829423 0.0079145068430454 0.0
1.6401195334201115 -0.0152461924635559 0.0
1.3351613453574620 0.2863686351461182 0.0
1.3338738387594817 0.2827488775544526 0.0
1.2904315674330886 0.0193401788576836 0.0
1.3741177750597369 -0.2055678914767900 0.0
1.2894194619277075 0.0140698095918990 0.0
1.3759142284499559 -0.2070710787844937 0.0
1.5464815672350887 0.0159746193322485 0.0
1.5299842847945546 -0.0355513336212527 0.0
1.3387787264820137 0.0157925563599849 0.0
1.3367747904385960 0.0143279698478987 0.0
1.2805577803781241 -0.0092433562662503 0.0
1.2696427617808532 -0.0088618268293510 0.0
1.3078683497851644 -0.0033506450732387 0.0
1.2200485974865629 -0.0143080764046880 0.0
1.1971314774030621 0.0089701635411538 0.0
1.3242910729561208 0.0007956618968077 0.0
1.4608595710153842 0.1298503478005313 0.0
1.4612277350214873 0.1281990213908504 0.0
1.3993698781511317 -0.2455864951761001 0.0
1.4037629393257309 -0.2468554687008440 0.0
1.4308279624071822 0.3128486733044215 0.0
1.4250303111226381 0.3151095965201546 0.0
1.1903893333227735 -0.0302534920249001 0.0
1.3004417893056250 -0.0040924555524536 0.0
1.2914238254487698 -0.0096270140402942 0.0
1.1959132940805743 -0.0299244582033473 0.0
1.1122948266155401 -0.0491303166413797 0.0
1.1122543961916027 -0.0408470074242812 0.0
1.1292502304205321 0.0256283563868527 0.0
1.1314359605764053 0.0138289250490117 0.0
1.2538902369775387 0.0056043561205613 0.0
1.2421724074948641 -0.0182390089246780 0.0
1.2438613508588297 0.0144019454030685 0.0
1.2510473917067388 -0.0064448226304944 0.0
1.4373128615623265 -0.0255360943594133 0.0
1.3236041947514325 0.0556188626003689 0.0
1.4401109636089005 0.0285258162542027 0.0
1.3179282324817865 -0.0494660380511653 0.0
1.5814888974345835 -0.2128460773912944 0.0
1.5808545477346245 -0.2129885495749156 0.0
1.1717126783406702 -0.0437978147892013 0.0
1.1923002246036902 0.0469821643504713 0.0
1.1599581562907759 -0.0504222558041013 0.0
1.2003825114537110 0.0335924871372828 0.0
1.4298425441211047 0.0268364723273820 0.0
1.4386542893673149 -0.0246348689708347 0.0
1.2934273970587906 -0.1597697928821417 0.0
1.2815353993153973 0.1921208431909393 0.0
1.1977605938371811 0.0529801935466815 0.0
1.1520868380778155 -0.0048413438532211 0.0
1.1940619765581750 -0.0375358419927399 0.0
1.1656810270713878 0.0326864080269316 0.0
1.2894843236222215 0.0073807024337017 0.0
1.2945843212388370 -0.0133938075032216 0.0
1.1660335247935454 0.0374380327723460 0.0
1.2211566187033860 -0.0648125888948735 0.0
1.1709696437635326 0.0400801612516651 0.0
1.2158340301915878 -0.0632740321802188 0.0
1.1768671703348870 0.0682567455577704 0.0
1.1483778176340973 -0.0417718835512830 0.0
1.1125314526112429 -0.0585893263025014 0.0
1.2057148211762867 0.0521074108626707 0.0
1.1109047343377563 -0.0229090217934776 0.0
1.1070818153423689 0.0183488192533616 0.0
1.5553578640498162 0.0112501441464313 0.0
1.5561204406928260 0.0021314154148664 0.0
1.4261180411269649 0.0382914770554878 0.0
1.4320368014896201 -0.0635405072582041 0.0
0.5084371210695557 -0.0082617737211196 0.0
0.4932498149727832 -0.0092192702814651 0.0
0.6058234535134593 0.1014645693924369 0.0
0.6222945604103512 0.1011674725593537 0.0
1.4587236300516708 0.4198376256282139 0.0
1.4545342740273850 0.4180535200950499 0.0
1.5317497095924044 -0.3324709688205462 0.0
1.5334306545689833 -0.3318394693628947 0.0
0.9639635656979391 0.0216162665126140 0.0
0.9642704437909952 0.0338458877252495 0.0
1.5907023343444004 0.0270314019201635 0.0
1.5848638008395770 -0.0379640087786343 0.0
1.1623630133534535 0.1952007375955519 0.0
1.1972966223192476 -0.2733752909840979 0.0
1.4522090632243132 -0.0512404802935982 0.0
1.4430448599409182 0.0220825971786969 0.0
0.7426732668641286 -0.0087127712909783 0.0
0.7623343796137293 0.0074785024491810 0.0
0.9574543496980740 -0.0179577142544036 0.0
0.9649315188592630 -0.0215969879608043 0.0
0.9794751119298123 0.0030905107035020 0.0
0.9751623191246901 0.0021871127656159 0.0
1.5587995918542707 -0.0227517745472135 0.0
1.5578592512884737 -0.0455259144286691 0.0
0.6950585041274762 -0.0885059396509538 0.0
0.6966651413640387 -0.0898175923434755 0.0
0.7406786491020343 0.0710301234888256 0.0
0.7430275454002788 0.0700626832252469 0.0
1.4859447149930745 0.0409342417264519 0.0
1.4863262760532550 0.0316923301995238 0.0
0.9094159057949730 -0.1120562329730431 0.0
0.9104588262615124 -0.1144578498627359 0.0
1.3546303729622429 -0.0004936441049243 0.0
1.2749605524309418 0.0143885880812303 0.0
1.0031390608918012 -0.0890864976380992 0.0
1.0036550451238211 -0.0891303889185296 0.0
1.4828916748095946 -0.0373181152360412 0.0
1.4910112880623132 -0.0409571956760248 0.0
1.4474084616294012 0.0510551678262895 0.0
1.4531957620780578 0.0572676724094657 0.0
0.7765941890818571 -0.0020711287055235 0.0
0.7773334600008114 -0.0020684845480380 0.0
0.7297313827853107 0.0156680526307489 0.0
0.7216993082748705 0.0126224341282462 0.0
0.8205674844202134 0.0365650593485802 0.0
0.8420758982589295 -0.0638301693257023 0.0
0.7543401966744129 0.0806337046009356 0.0
0.7564403462086041 0.0784067076771439 0.0
1.5709240890240712 -0.0134606465605789 0.0
1.5805505073882977 0.0081275614490139 0.0
1.5534484658467524 -0.0078137672745673 0.0
1.5537486966940135 -0.0112357004422089 0.0
0.7151405460126870 -0.0000762852682314 0.0
0.7367967374136419 0.0223752842392521 0.0
0.7211044858914478 -0.0112023451615886 0.0
0.7151316536345239 0.0136843460128820 0.0
1.6145818975064896 0.0022638405996112 0.0
1.6182369274629642 -0.0470559273068479 0.0
1.4943270149634467 -0.0243073524233956 0.0
1.4936765475067681 -0.0225081905031159 0.0
0.7240070314737331 -0.0098999604174146 0.0
0.6480797168221397 0.0170553403493615 0.0
0.6581331358081086 -0.0178433779467072 0.0
0.7091908882434779 0.0089544022340487 0.0
0.8154471741539056 0.0319843711294359 0.0
0.7891074809716988 -0.0194757607454963 0.0
0.8199244003610758 0.0215061204069636 0.0
0.8015702507180754 -0.0263575377086680 0.0
1.4090046843434403 -0.0009545924333126 0.0
1.4285541952098060 -0.0033925722571459 0.0
1.4124333020247315 0.0004710722892783 0.0
1.4275759404270423 -0.0039214598386739 0.0
1.5607193907298276 0.0059322886742401 0.0
1.5515254461150658 -0.0107565274050968 0.0
1.3214946848978562 0.0121371624229468 0.0
1.3531552336282535 -0.0336242539765473 0.0
1.4053356925415270 0.0043686563689343 0.0
1.4103860975108420 -0.0101797250400647 0.0
0.7328706565169925 -0.0177917013177258 0.0
0.6749710532365900 0.0211011376567474 0.0
0.7323643408909989 -0.0196246728169486 0.0
0.6778201112311676 0.0216458316493404 0.0
0.5792346832781329 -0.1102285300645820 0.0
0.5820509139753721 -0.1055717744678790 0.0
1.2876294722312087 0.1109210757848687 0.0
1.2866722748013830 0.1090980380769331 0.0
1.4133724102466638 -0.0105308990792077 0.0
1.3772062955924598 -0.0329138243082282 0.0
1.3817100751540436 0.0229107989103460 0.0
1.4141693192353013 0.0003029518920989 0.0
0.7996258370572018 -0.0633330674843261 0.0
0.8000560460974718 0.0727806779613456 0.0
1.0988443200861377 -0.1363190855280883 0.0
1.0976847435131722 -0.1298449971832479 0.0
1.1099325416035195 0.1906477420251328 0.0
1.1062065429445425 0.1940507095383693 0.0
0.8501235990160937 -0.0425126116923433 0.0
0.8156721503088763 0.0496626999507979 0.0
0.8445492372669073 -0.0394425039876046 0.0
0.8221579244081628 0.0540316848464942 0.0
1.5391441757893736 -0.0104808750354771 0.0
1.5386909810233764 -0.0161008650650756 0.0
0.6890011916977726 -0.0202026049574715 0.0
0.7111400984545957 0.0038294558178735 0.0
0.6570868727262648 0.0236441920030099 0.0
0.7336651029605313 0.0410494184166058 0.0
0.6675089342931667 -0.0002483789675743 0.0
0.6712119286434802 -0.0004478796849541 0.0
1.4097628794030534 -0.1807999952883790 0.0
1.4051365529719348 -0.1764260843075330 0.0
1.2939881985121779 0.2314648487894468 0.0
1.2923863241166915 0.2188239248911210 0.0
0.5174943205755249 -0.0525901693409124 0.0
0.5223516035520851 -0.0521454444324569 0.0
0.5259985957221871 0.0519052809816561 0.0
0.5309718258637317 0.0503519206310930 0.0
1.3989685435298129 -0.0071962455178451 0.0
1.4034352140330104 -0.0035004498349853 0.0
1.3705360499423009 -0.1378139408073596 0.0
1.3793636609879043 -0.1371796594275001 0.0
1.4086223045471398 0.1461978902277379 0.0
1.3958828633894134 0.1452122320190168 0.0
0.8555414182926007 0.0401527869556231 0.0
0.7547148333011096 -0.1070925163103467 0.0
0.8444663457610185 0.0489937193881940 0.0
0.7694055472265640 -0.0939468661555868 0.0
1.3907401769517653 -0.0428298879504453 0.0
1.3660567033481903 0.0486758339736640 0.0
1.3853898350779803 -0.0383935456402080 0.0
1.3702489207651281 0.0540053328558394 0.0
1.5000511044852780 -0.0044645210015721 0.0
1.4986061419673522 -0.0262837876348740 0.0
0.6524538056478483 0.0003066526880988 0.0
0.6566125366854875 0.0061799445969467 0.0
1.3860737957059861 0.0732601852267901 0.0
1.3951386252257787 0.0539094330454609 0.0
1.5156162900340557 -0.0395113912493507 0.0
1.4932588286666391 0.0432173614264800 0.0
0.7244776197663384 0.0794422995761502 0.0
0.7139074834405699 0.0856785130383106 0.0
1.4550215447086461 -0.0291326091530569 0.0
1.4129092678548820 0.0361655545333724 0.0
1.4141555744357501 -0.0511035497958231 0.0
1.4534172040179112 0.0053953559279588 0.0
1.6204376494791042 0.0111990426652232 0.0
1.6339774706780215 -0.0180678646410564 0.0
0.5097811630390947 0.0007812458275023 0.0
0.5087941920516331 0.0012479548196754 0.0
1.5210749248649138 -0.0256970456476287 0.0
1.5198493464089837 0.0254286085878821 0.0
0.9378633286862691 0.2267502916120286 0.0
0.9059773511972909 -0.2231892133777880 0.0
1.4141366127734454 -0.0133960233218641 0.0
1.4172799773364548 -0.0011647306788885 0.0
1.3251107704558120 0.0103522799508515 0.0
1.3568104702087025 -0.0354519822627727 0.0
1.3244067518375751 -0.0063168717916219 0.0
1.3258534071139465 -0.0082520664582491 0.0
1.2021993234440420 -0.1095401174610755 0.0
1.2022878571072408 -0.1100494511553270 0.0
1.4445930483438345 -0.0263990276817501 0.0
1.4051457853323595 0.0164556792160089 0.0
1.4495805094133700 -0.0268032110845275 0.0
1.4398556227841031 0.0273728081545611 0.0
1.4511588871893990 -0.0302405724129864 0.0
1.4113846805072996 0.0200682104591358 0.0
0.4439140286983735 0.0530280722972503 0.0
0.4459198672014202 0.0489801999545959 0.0
0.4389515203533693 -0.0361677035447413 0.0
0.4327581176900848 -0.0398302878704564 0.0
1.4365932651708118 -0.3045488607024566 0.0
1.4377599898221185 -0.3057944335483370 0.0
0.4012593367657654 0.0059908261514354 0.0
0.4091147359438079 -0.0100241455910827 0.0
1.5168737299518962 0.3033840808854543 0.0
1.5179409059901436 0.2996227445628199 0.0
0.5913071603241307 0.0959933802712470 0.0
0.5922540762816362 0.0951255776007829 0.0
1.5127018538272403 0.0215529760717833 0.0
1.5143745430646509 -0.0209341556504741 0.0
1.3279532241058036 -0.0168935739439066 0.0
1.3380833678588324 0.0187861686225310 0.0
1.4431334781367555 -0.3286932326077349 0.0
1.4399549121132933 -0.3297282005820179 0.0
1.3915888782414179 0.4437139773062235 0.0
1.4003034654341877 0.4378681440354749 0.0
1.5488928005977456 0.0015282199294334 0.0
1.5498477929216878 -0.0006389963630281 0.0
0.4938341562097754 0.0569476583129071 0.0
0.4741252577023743 -0.0615803275584637 0.0
0.4870035717111622 0.0599949905506286 0.0
0.4830683172741772 -0.0585948528813228 0.0
0.4207713904054380 0.0256414337651808 0.0
0.4392182741418561 0.0258025053345674 0.0
0.4623008420755866 -0.0140064718786754 0.0
0.4809197503149248 -0.0153633447983962 0.0
1.1908684047351623 -0.1840922660148756 0.0
1.2045681720661039 -0.1822264646579744 0.0
1.2267766823072055 0.2423302317455572 0.0
1.2141051104237897 0.2447878082917775 0.0
1.2053228230843669 -0.2720001506311776 0.0
1.1805402890256655 0.2653122732242202 0.0
1.4382140554219505 0.0108967932400299 0.0
1.4434736934441763 0.0169452640986414 0.0
0.5174729206222969 -0.0082100059062277 0.0
0.4941002745092285 -0.0002837311554666 0.0
0.5250226069008682 0.0126022472175658 0.0
0.5044416683346592 0.0037652148936952 0.0
1.4728742221008955 -0.0139776109075158 0.0
1.4632745536560736 0.0045615512022337 0.0
1.3287311766933898 -0.0218902441814287 0.0
1.3320080700624266 -0.0215242168282726 0.0
0.8742878764341504 0.2634438027776471 0.0
0.9356828224374235 -0.2431211660296711 0.0
1.0651091824042518 0.0871896552924322 0.0
1.0668562437279654 0.0919033142646911 0.0
1.0843707037708044 -0.1130464809226509 0.0
1.0803709707177471 -0.1135841837867786 0.0
0.6358349769024054 -0.1334473077900944 0.0
0.6504330503277416 0.1413482626258974 0.0
0.3056087688837112 -0.0266614792342321 0.0
0.3074029576564847 -0.0254746511224401 0.0
0.3139208243232098 -0.0080281770007370 0.0
0.3139216197669195 -0.0078173977883882 0.0
0.3625080976893262 -0.0114147827630203 0.0
0.3630306676654819 0.0114895993878004 0.0
1.2246804989221098 0.3247388882893924 0.0
1.1735370200961248 -0.2633350376739468 0.0
0.5101483127015481 -0.0604080346912598 0.0
0.5014546103181730 0.0725277192600046 0.0
0.5076444380615243 -0.0594419733633866 0.0
0.5042130218258996 0.0742852299119759 0.0
1.4829321560191890 0.0482276426668682 0.0
1.4918245483809400 -0.0609113862798347 0.0
0.4549979987272608 0.0751235591797075 0.0
0.5235446092156779 -0.1234502159031061 0.0
0.9534635927651230 0.0480372586515688 0.0
0.9501992098915027 0.0470790205021370 0.0
0.9700260803650526 -0.0440520467326414 0.0
0.9701914750598767 -0.0431671369725370 0.0
0.8674064388467315 0.0208105931029335 0.0
0.8677492205078705 0.0308897862855224 0.0
0.5399730269923722 0.0466454850865366 0.0
0.5160132948830631 -0.0592340606212265 0.0
0.5372223321093935 0.0458288468417527 0.0
0.5156412539546067 -0.0592211183605484 0.0
1.5280963797457860 -0.0052675558721377 0.0
1.5264365423758144 -0.0019144051337345 0.0
0.4333855730438942 -0.0730114627935832 0.0
0.4776430615926672 0.0502171331440334 0.0
0.4655768843690576 0.0611627165500119 0.0
0.4491679590460163 -0.0614368586666349 0.0
1.0673365521275742 0.0246359152332576 0.0
1.0950996170481027 0.0291672073266976 0.0
1.1230731841553911 -0.0478592623854803 0.0
1.1068419358051238 -0.0490967847933503 0.0
1.3170472953160690 0.0055570086696142 0.0
1.3122485989237760 0.0143030927558557 0.0
1.3539409077220774 -0.0640804433328662 0.0
1.3632760410166833 -0.0429909261561320 0.0
1.0995236732648939 -0.1026012015006286 0.0
1.0992107406294580 -0.1063016125113462 0.0
0.5356341606632408 -0.0024519041590173 0.0
0.5340634979491419 0.0066375580778101 0.0
0.5400850683403361 0.0040960863982728 0.0
0.5281402237370156 -0.0056810011612818 0.0