# vtk DataFile Version 3.0
LucasCarvalhoTCC Results
ASCII

DATASET POLYDATA
FIELD FieldData 1
TIME 1 1 double
0.2

POINTS 494 float
0.0 0.0 0.0
8.0 0.0 0.0
8.0 1.0 0.0
0.0 1.0 0.0
4.0 0.0 0.0
4.0 1.0 0.0
4.0 0.35 0.0
4.0 0.65 0.0
0.2010296266416496 1.0 0.0
0.3986915135488555 1.0 0.0
0.5930420631591132 1.0 0.0
0.7841367769318693 1.0 0.0
0.9720301907499852 1.0 0.0
1.156775924166146 1.0 0.0
1.33842670621592 1.0 0.0
1.517034389070868 1.0 0.0
1.69264994674003 1.0 0.0
1.865323550794866 1.0 0.0
2.035104414722059 1.0 0.0
2.202040983487818 1.0 0.0
2.366180993436638 1.0 0.0
2.527571282866703 1.0 0.0
2.686257831390245 1.0 0.0
2.842286022819771 1.0 0.0
2.995700353514032 1.0 0.0
3.146544637914273 1.0 0.0
3.294861880721452 1.0 0.0
3.440694398353104 1.0 0.0
3.58408394609007 1.0 0.0
3.725071294102791 1.0 0.0
3.863696788294668 1.0 0.0
4.136303211705004 1.0 0.0
4.274928705896546 1.0 0.0
4.415916053908917 1.0 0.0
4.55930560164552 1.0 0.0
4.7051381192768 1.0 0.0
4.853455362083593 1.0 0.0
5.004299646483437 1.0 0.0
5.157713977177285 1.0 0.0
5.313742168606385 1.0 0.0
5.472428717129489 1.0 0.0
5.6338190065591 1.0 0.0
5.797959016507455 1.0 0.0
5.96489558527273 1.0 0.0
6.134676449200184 1.0 0.0
6.307350053255487 1.0 0.0
6.482965610925135 1.0 0.0
6.661573293780584 1.0 0.0
6.843224075830887 1.0 0.0
7.027969809247587 1.0 0.0
7.215863223066262 1.0 0.0
7.4069579368396 1.0 0.0
7.601308486450315 1.0 0.0
7.798970373357896 1.0 0.0
8.0 0.7999999999999996 0.0
8.0 0.6000000000013874 0.0
8.0 0.4000000000016649 0.0
8.0 0.2000000000008324 0.0
7.798970373357898 0.0 0.0
7.601308486450317 0.0 0.0
7.406957936839601 0.0 0.0
7.215863223066265 0.0 0.0
7.02796980924759 0.0 0.0
6.843224075830888 0.0 0.0
6.661573293780592 0.0 0.0
6.482965610925139 0.0 0.0
6.307350053255492 0.0 0.0
6.134676449200188 0.0 0.0
5.964895585272735 0.0 0.0
5.797959016507459 0.0 0.0
5.633819006559103 0.0 0.0
5.472428717129493 0.0 0.0
5.313742168606389 0.0 0.0
5.157713977177288 0.0 0.0
5.004299646483441 0.0 0.0
4.853455362083597 0.0 0.0
4.705138119276803 0.0 0.0
4.559305601645523 0.0 0.0
4.415916053908919 0.0 0.0
4.274928705896549 0.0 0.0
4.136303211705007 0.0 0.0
3.863696788294383 0.0 0.0
3.725071294102209 0.0 0.0
3.584083946089184 0.0 0.0
3.440694398352564 0.0 0.0
3.29486188072223 0.0 0.0
3.146544637916415 0.0 0.0
2.995700353517581 0.0 0.0
2.842286022824779 0.0 0.0
2.68625783139676 0.0 0.0
2.527571282874774 0.0 0.0
2.366180993446318 0.0 0.0
2.202040983499156 0.0 0.0
2.035104414735112 0.0 0.0
1.865323550807426 0.0 0.0
1.692649946751479 0.0 0.0
1.517034389081164 0.0 0.0
1.338426706225015 0.0 0.0
1.156775924174005 0.0 0.0
0.9720301907565596 0.0 0.0
0.784136776937109 0.0 0.0
0.5930420631629705 0.0 0.0
0.3986915135514271 0.0 0.0
0.2010296266429896 0.0 0.0
0.0 0.199999999999558 0.0
0.0 0.3999999999989746 0.0
0.0 0.5999999999989464 0.0
0.0 0.7999999999994731 0.0
4.065082561150232 0.3648546699507293 0.0
4.117274722996153 0.4064765305061043 0.0
4.146239186965635 0.4666218605127571 0.0
4.146239186588658 0.5333781411388893 0.0
4.117274722147235 0.5935234705584039 0.0
4.065082560620447 0.6351453303044018 0.0
3.934917439190226 0.6351453302132268 0.0
3.882725277520537 0.5935234701418048 0.0
3.853760813071839 0.5333781396514286 0.0
3.853760813263242 0.4666218595099774 0.0
3.882725277782338 0.4064765295299076 0.0
3.934917439246251 0.3648546697597932 0.0
3.348071016817302 0.5037366844559412 0.0
4.65817771841185 0.4813089492125461 0.0
5.148432135339639 0.5000000000000013 0.0
2.851567863014233 0.5000000000000465 0.0
4.406326506211093 0.3072680842959042 0.0
3.575604791543614 0.6706702532911111 0.0
4.424395205595821 0.6706702556565258 0.0
3.593673497058965 0.3072680820819204 0.0
5.648652107845511 0.5000000000000006 0.0
2.351347890458042 0.4999999999998563 0.0
1.851146954963573 0.4999999999998219 0.0
6.148853043290459 0.4999999999999989 0.0
6.65089532386231 0.5241211434250735 0.0
1.349104674975677 0.4758788558671475 0.0
7.150713697794147 0.4858064203922342 0.0
0.8492863006035025 0.4858064203396458 0.0
4.216343713145164 0.2287135668575249 0.0
3.7836562881134 0.7712864338025908 0.0
4.346988371127422 0.5000000019594898 0.0
4.213775907987267 0.7756803165215952 0.0
3.653011628408684 0.4999999990051173 0.0
3.786224091202296 0.224319683220954 0.0
7.572712389010231 0.5763628491757339 0.0
0.4272876103144935 0.5763628498169726 0.0
4.881741322202974 0.3185523670790996 0.0
3.118258676783759 0.6814476337404539 0.0
3.126854924363118 0.2792890251323842 0.0
4.873145074373641 0.7207109754187309 0.0
5.398381996912613 0.291094588046412 0.0
5.396092528392672 0.7230702977293901 0.0
2.603907471650227 0.7230702981371074 0.0
2.601618001742297 0.2910945873520305 0.0
4.065645388412852 0.1903894420877926 0.0
3.934354612281609 0.8096105573695707 0.0
4.268393145079946 0.6292513280674802 0.0
3.731606853978594 0.3707486723017213 0.0
4.265062587797852 0.3723525870906427 0.0
3.734937412407246 0.6276474138958879 0.0
5.89991820844496 0.720584760457478 0.0
5.899661142431216 0.2940789491313893 0.0
2.100338856207466 0.7059210507243335 0.0
2.100081790085733 0.2794152396968363 0.0
4.648216390708278 0.2460745758417431 0.0
3.350865525112209 0.7519279174007294 0.0
3.351783614314077 0.2460745727859678 0.0
4.649134469923633 0.7519279206208029 0.0
6.386000070083336 0.2800687217561524 0.0
6.399946740387701 0.7091877900019353 0.0
1.613999929083956 0.7199312783619409 0.0
1.600053258667474 0.2908122092889953 0.0
1.099018086220021 0.3101534564461602 0.0
1.099018086220183 0.6898465435530818 0.0
6.900981912171285 0.3101534566801202 0.0
6.900981912171287 0.689846543319878 0.0
3.934891793257755 0.2336799984692873 0.0
4.065108206439434 0.7663200008196746 0.0
5.133077706310633 0.254681732561614 0.0
5.131620328745691 0.7509194919064351 0.0
2.866922291796803 0.7453182673725732 0.0
2.868379670398546 0.2490805081265555 0.0
0.5973224633027379 0.3123440263675117 0.0
7.402677535116692 0.3123440263206204 0.0
7.70928508668797 0.2984218335093966 0.0
0.2907149122204558 0.2984218350042115 0.0
2.359042531710287 0.2526358364218651 0.0
2.362552667743482 0.7498876177132479 0.0
5.640957467742433 0.2526358368965552 0.0
5.637447332034727 0.7498876177447886 0.0
7.330771635020911 0.7204300868765696 0.0
0.6692283641678903 0.7204300870263377 0.0
6.141991504218947 0.7500064293114952 0.0
6.143214654121697 0.2541610692540839 0.0
1.858008494097047 0.2499935706645152 0.0
1.856785344746094 0.7458389307817799 0.0
1.360037479834015 0.7503851535261052 0.0
1.363297687800482 0.2332108063209677 0.0
6.636702311691573 0.7667891933666813 0.0
6.639962519949044 0.2496148464378299 0.0
7.14328150074831 0.2292696686424185 0.0
0.8567184978980538 0.2292696684503961 0.0
4.845173759433459 0.5000000012080886 0.0
3.15482623877425 0.4999999993865263 0.0
3.514470413944982 0.5755907957035395 0.0
4.485529584365944 0.5755907996488695 0.0
4.350214515329574 0.8947484376274254 0.0
3.64978548377064 0.1052515623441257 0.0
4.356280753270322 0.1397878825788729 0.0
3.643719248073251 0.8602121180766233 0.0
4.157657982820168 0.3023031440803671 0.0
3.842342017851872 0.6976968563131654 0.0
4.149794964153143 0.6947625877680722 0.0
3.850205035403508 0.3052374120341299 0.0
4.252863769441745 0.5000000013253333 0.0
3.747136230269581 0.4999999993774377 0.0
2.66150837620265 0.4835883053501762 0.0
5.338491622258749 0.4835883052760253 0.0
7.732076714471282 0.7613785341653052 0.0
0.267923285219987 0.7613785345749642 0.0
3.482582425594127 0.3988584940714734 0.0
4.517417574829351 0.3988584973195787 0.0
7.120961454429095 0.7969630876933931 0.0
0.8790385446795201 0.7969630878928393 0.0
4.524178509919695 0.1937066442020419 0.0
3.472973035782958 0.803602443762734 0.0
4.527026959328886 0.8036024455277256 0.0
3.475821495314308 0.1937066425220846 0.0
5.834485749168302 0.4775259269822466 0.0
2.16551424934095 0.5224740729963462 0.0
4.803832126993392 0.8343163881584211 0.0
3.196167871756218 0.1656836120733276 0.0
3.196167870279283 0.834316388182051 0.0
4.803832130306974 0.1656836112805605 0.0
1.646902821176459 0.5088844228822333 0.0
6.35309717778631 0.4911155766888507 0.0
4.128745436683365 0.8608937921704661 0.0
3.871254562700506 0.1391062074145501 0.0
7.783519314041498 0.4824599318584197 0.0
0.2164806854160975 0.4824599323519634 0.0
3.981228286637499 0.1341601386487245 0.0
4.018771713398118 0.8658398609794804 0.0
4.757705393330306 0.6277793253200102 0.0
3.245404476813698 0.3720431195654205 0.0
3.262406961538709 0.609092082228193 0.0
4.738552632749474 0.3854106153034425 0.0
4.980576921401999 0.1828043249223437 0.0
3.019423077460087 0.8171956749482756 0.0
4.975386875116307 0.8288560892267683 0.0
3.024613123995747 0.1711439108946455 0.0
7.537862127958827 0.7914398748884439 0.0
0.46213787149577 0.7914398749623154 0.0
4.150965283491015 0.1232311208167031 0.0
3.849034718225983 0.8767688792466098 0.0
0.6330166515036239 0.5212993800799176 0.0
7.366983347335347 0.5212993798709434 0.0
5.001451172914062 0.4591396125040952 0.0
2.998548825585332 0.5408603877155073 0.0
5.250532135494552 0.1623854812497458 0.0
5.24999687257574 0.8404382486850067 0.0
2.749794930508214 0.8396380739052673 0.0
2.749676059914328 0.161585306286623 0.0
1.150631951549359 0.5017906253149568 0.0
6.85747267660715 0.5137706215776152 0.0
2.938770240933895 0.3859183074771494 0.0
5.061229757952985 0.6140816927005173 0.0
5.521883200863776 0.8371838481144578 0.0
5.520780843451154 0.1567733764659754 0.0
2.479219155991939 0.1567733759623464 0.0
2.478116798894765 0.8371838481096507 0.0
2.208224060227917 0.1725929992863016 0.0
2.214655190115911 0.821187355218689 0.0
5.791775938918927 0.8274070011383262 0.0
5.785558009721889 0.1789659155514431 0.0
5.243140500145841 0.3651007420679131 0.0
5.247758683472709 0.6318228659349833 0.0
2.748336099792684 0.6332079670712092 0.0
2.766145970608876 0.3583112578457802 0.0
2.500794992947401 0.4517155340697119 0.0
5.499205006433885 0.4517155344186723 0.0
3.472119223331378 0.69283875816516 0.0
4.527880773131323 0.6928387614752662 0.0
2.445947440949104 0.6396216022327238 0.0
5.554052558509333 0.6396216019605415 0.0
1.976669571201813 0.1631348676957265 0.0
[...]
POINT_DATA 494

VECTORS Velocity float
0.0000000000000000 0.0000000000000000 0.0
0.8614224863870127 -0.0851489801433466 0.0
0.0000000000000000 0.0000000000000000 0.0
0.0000000000000000 0.0000000000000000 0.0
0.0000000000000000 0.0000000000000000 0.0
0.0000000000000000 0.0000000000000000 0.0
0.0000000000000000 0.0000000000000000 0.0
0.0000000000000000 0.0000000000000000 0.0
0.0000000000000000 0.0000000000000000 0.0
0.0000000000000000 0.0000000000000000 0.0
0.0000000000000000 0.0000000000000000 0.0
0.0000000000000000 0.0000000000000000 0.0
0.0000000000000000 0.0000000000000000 0.0
0.0000000000000000 0.0000000000000000 0.0
0.0000000000000000 0.0000000000000000 0.0
0.0000000000000000 0.0000000000000000 0.0
0.0000000000000000 0.0000000000000000 0.0
0.0000000000000000 0.0000000000000000 0.0
0.0000000000000000 0.0000000000000000 0.0
0.0000000000000000 0.0000000000000000 0.0
0.0000000000000000 0.0000000000000000 0.0
0.0000000000000000 0.0000000000000000 0.0
0.0000000000000000 0.0000000000000000 0.0
0.0000000000000000 0.0000000000000000 0.0
0.0000000000000000 0.0000000000000000 0.0
0.0000000000000000 0.0000000000000000 0.0
0.0000000000000000 0.0000000000000000 0.0
0.0000000000000000 0.0000000000000000 0.0
0.0000000000000000 0.0000000000000000 0.0
0.0000000000000000 0.0000000000000000 0.0
0.0000000000000000 0.0000000000000000 0.0
0.0000000000000000 0.0000000000000000 0.0
0.0000000000000000 0.0000000000000000 0.0
0.0000000000000000 0.0000000000000000 0.0
0.0000000000000000 0.0000000000000000 0.0
0.0000000000000000 0.0000000000000000 0.0
0.0000000000000000 0.0000000000000000 0.0
0.0000000000000000 0.0000000000000000 0.0
0.0000000000000000 0.0000000000000000 0.0
0.0000000000000000 0.0000000000000000 0.0
0.0000000000000000 0.0000000000000000 0.0
0.0000000000000000 0.0000000000000000 0.0
0.0000000000000000 0.0000000000000000 0.0
0.0000000000000000 0.0000000000000000 0.0
0.0000000000000000 0.0000000000000000 0.0
0.0000000000000000 0.0000000000000000 0.0
0.0000000000000000 0.0000000000000000 0.0
0.0000000000000000 0.0000000000000000 0.0
0.0000000000000000 0.0000000000000000 0.0
0.0000000000000000 0.0000000000000000 0.0
0.0000000000000000 0.0000000000000000 0.0
0.0000000000000000 0.0000000000000000 0.0
0.0000000000000000 0.0000000000000000 0.0
0.0000000000000000 0.0000000000000000 0.0
1.0920639827745435 0.3602917120304918 0.0
0.9863884308988689 0.0524029010827307 0.0
0.9889396038110015 -0.0261952866506451 0.0
1.0558987516688469 -0.2819729806955014 0.0
0.0000000000000000 0.0000000000000000 0.0
0.0000000000000000 0.0000000000000000 0.0
0.0000000000000000 0.0000000000000000 0.0
0.0000000000000000 0.0000000000000000 0.0
0.0000000000000000 0.0000000000000000 0.0
0.0000000000000000 0.0000000000000000 0.0
0.0000000000000000 0.0000000000000000 0.0
0.0000000000000000 0.0000000000000000 0.0
0.0000000000000000 0.0000000000000000 0.0
0.0000000000000000 0.0000000000000000 0.0
0.0000000000000000 0.0000000000000000 0.0
0.0000000000000000 0.0000000000000000 0.0
0.0000000000000000 0.0000000000000000 0.0
0.0000000000000000 0.0000000000000000 0.0
0.0000000000000000 0.0000000000000000 0.0
0.0000000000000000 0.0000000000000000 0.0
0.0000000000000000 0.0000000000000000 0.0
0.0000000000000000 0.0000000000000000 0.0
0.0000000000000000 0.0000000000000000 0.0
0.0000000000000000 0.0000000000000000 0.0
0.0000000000000000 0.0000000000000000 0.0
0.0000000000000000 0.0000000000000000 0.0
0.0000000000000000 0.0000000000000000 0.0
0.0000000000000000 0.0000000000000000 0.0
0.0000000000000000 0.0000000000000000 0.0
0.0000000000000000 0.0000000000000000 0.0
0.0000000000000000 0.0000000000000000 0.0
0.0000000000000000 0.0000000000000000 0.0
0.0000000000000000 0.0000000000000000 0.0
0.0000000000000000 0.0000000000000000 0.0
0.0000000000000000 0.0000000000000000 0.0
0.0000000000000000 0.0000000000000000 0.0
0.0000000000000000 0.0000000000000000 0.0
0.0000000000000000 0.0000000000000000 0.0
0.0000000000000000 0.0000000000000000 0.0
0.0000000000000000 0.0000000000000000 0.0
0.0000000000000000 0.0000000000000000 0.0
0.0000000000000000 0.0000000000000000 0.0
0.0000000000000000 0.0000000000000000 0.0
0.0000000000000000 0.0000000000000000 0.0
0.0000000000000000 0.0000000000000000 0.0
0.0000000000000000 0.0000000000000000 0.0
0.0000000000000000 0.0000000000000000 0.0
0.0000000000000000 0.0000000000000000 0.0
0.0000000000000000 0.0000000000000000 0.0
0.0000000000000000 0.0000000000000000 0.0
1.0000000000000000 0.0000000000000000 0.0
1.0000000000000000 0.0000000000000000 0.0
1.0000000000000000 0.0000000000000000 0.0
1.0000000000000000 0.0000000000000000 0.0
0.0000000000000000 0.0000000000000000 0.0
0.0000000000000000 0.0000000000000000 0.0
0.0000000000000000 0.0000000000000000 0.0
0.0000000000000000 0.0000000000000000 0.0
0.0000000000000000 0.0000000000000000 0.0
0.0000000000000000 0.0000000000000000 0.0
0.0000000000000000 0.0000000000000000 0.0
0.0000000000000000 0.0000000000000000 0.0
0.0000000000000000 0.0000000000000000 0.0
0.0000000000000000 0.0000000000000000 0.0
0.0000000000000000 0.0000000000000000 0.0
0.0000000000000000 0.0000000000000000 0.0
1.1677552315953947 0.0004491389711608 0.0
1.1688606372375197 -0.0015135334015161 0.0
1.2064697985297630 -0.0057276477525168 0.0
1.2076094410860927 0.0025999691038950 0.0
1.1701510135551600 0.0118760849663458 0.0
1.1594976065121605 0.0201275176415057 0.0
1.1564917090478568 -0.0342460791646745 0.0
1.1656728179339950 -0.0321142693279661 0.0
1.2087118110130259 0.0025150076499760 0.0
1.2082033189545986 -0.0087462504172461 0.0
1.2044967745596047 0.0068638798077241 0.0
1.2041870708142726 0.0053785724775167 0.0
1.2185396772040253 -0.0054804194291076 0.0
1.2206335682545395 -0.0027098839940621 0.0
1.2462850424645162 0.0043310528289553 0.0
1.2453458753632838 -0.0080568313684813 0.0
1.3153786456966006 0.0887856418720209 0.0
1.3091683094294930 0.0953317496780904 0.0
1.1098881273488077 -0.0002489804332239 0.0
1.3084612220619158 -0.0752416729376285 0.0
1.1110098054466764 0.0078540571223596 0.0
1.3141495849891489 -0.0702608091923106 0.0
1.2848034564053015 0.0172104302141291 0.0
1.2856013320494957 -0.0219115748665982 0.0
1.2384584584810299 0.0104139626113416 0.0
1.2268833510049442 0.0116786772955166 0.0
1.2516624523209829 -0.0033368198329406 0.0
1.2387001970486138 -0.0032149433591690 0.0
1.3038804085537601 -0.0015706157200468 0.0
1.2984600109133890 -0.0057712982585541 0.0
1.2952098624157407 0.0039429949483500 0.0
1.3061738142513555 -0.0001583607556505 0.0
1.3899832867732300 0.0872879304767648 0.0
1.3883973163801684 0.0885656053326401 0.0
1.1527748434193863 -0.1077988732503831 0.0
1.1523822668116634 -0.0973611753646869 0.0
1.1661651844735526 0.1176007251982507 0.0
1.1678509391141307 0.1304311823368657 0.0
1.2644915217732724 -0.0240781460025682 0.0
1.2772154634258432 0.0094367226938301 0.0
1.2634394676142047 0.0085192990941198 0.0
1.2801945953525942 -0.0245412994684624 0.0
1.2043567918578810 -0.0039517187998084 0.0
1.1888753448942933 -0.0017467365659278 0.0
1.2101310847413032 -0.0020516385802657 0.0
1.1939542464914548 -0.0049532484988493 0.0
1.2381321901475586 0.0020392601735891 0.0
1.2073763426030442 -0.0006316495833323 0.0
1.2241450431333922 0.0041281623107807 0.0
1.2201458931550782 0.0013807247820138 0.0
1.3462782548402392 0.0040519283693544 0.0
1.3191219440908535 0.0334327000704275 0.0
1.3442557056575344 -0.0084128219709122 0.0
1.3220064907006270 -0.0375745940096636 0.0
1.4045707764332767 -0.1004494350823305 0.0
1.4048152277584309 -0.1031765208296112 0.0
1.2778672785666230 0.0242642538885364 0.0
1.2638865239280175 -0.0280226999757417 0.0
1.2642417984893513 0.0184143929840478 0.0
1.2772857817617187 -0.0339983710845349 0.0
1.3470036329465591 -0.0164801985414211 0.0
1.3498780224669293 0.0140640463416102 0.0
1.2691342307026754 -0.1016933990411259 0.0
1.2838801898082599 0.0860916425935565 0.0
1.2922965094677876 0.0232183105257018 0.0
1.2748860446654582 -0.0194527324227467 0.0
1.2878425532743294 -0.0159974505748225 0.0
1.2777694095705081 0.0275000608445737 0.0
1.2810460399116805 0.0021526974846405 0.0
1.2808646572898563 -0.0053785675017253 0.0
1.2688016192212155 0.0358508498473978 0.0
1.2873856053695800 -0.0268584869589180 0.0
1.2852025338778765 0.0369376561699562 0.0
1.2715742099700811 -0.0267535193734734 0.0
1.2678635695983305 0.0485646253837857 0.0
1.2842517303413750 -0.0518298378295531 0.0
1.2687480464579446 -0.0595076667812224 0.0
1.2835318040058259 0.0421198182619761 0.0
1.2872596580807392 -0.0042974942342385 0.0
1.2867935097166543 0.0022132286085038 0.0
1.1846171784464732 0.0038798904142106 0.0
1.1835661414235112 0.0052497533428930 0.0
1.1495221454416933 0.0149211107081367 0.0
1.1470866183573454 -0.0125718053945645 0.0
0.7826105496914367 -0.0107972864101101 0.0
0.7797756347614876 -0.0085923409354199 0.0
0.8579414235114511 0.0619174718632186 0.0
0.8588125158304304 0.0628710258688013 0.0
1.2554463737992250 0.2302951086002656 0.0
1.2599483153933326 0.2377072883240339 0.0
1.2826882175035028 -0.1888182807570389 0.0
1.2777488092393929 -0.1823675994767638 0.0
0.9752216445437349 -0.0020525968482099 0.0
0.9754797179389652 0.0163045124782230 0.0
1.2119497997624809 -0.0024960133747702 0.0
1.2113597105238116 0.0000206555785979 0.0
1.2451426097470788 0.1261844756222286 0.0
1.2463205275187235 -0.1484210030439707 0.0
1.1528154022518151 -0.0059017297817506 0.0
1.1548778798954729 0.0015984963671664 0.0
0.9438519593246858 0.0045276103770635 0.0
0.9481342263231178 -0.0059255145477587 0.0
1.2124472493671505 0.0076798628324874 0.0
1.1966312519194917 0.0011248513808057 0.0
1.2036378990533287 -0.0183732128631414 0.0
1.2222161853568136 -0.0219735166985217 0.0
1.2113877433656635 -0.0017274434217922 0.0
1.2102134710029810 0.0010000318275540 0.0
0.9471552680436560 -0.0474866404574363 0.0
0.9619271693530853 -0.0464298787276015 0.0
0.9706614983782244 0.0482479568570027 0.0
0.9852357963128915 0.0468674731298795 0.0
1.2026971744411712 0.0006420720002036 0.0
1.2027271404181150 0.0000505047009049 0.0
1.0198470965394968 -0.0442481328901062 0.0
1.0246399403790261 -0.0437106716538243 0.0
1.1288791153905633 0.0009549851990573 0.0
1.1260092301909197 0.0061904733969227 0.0
1.0473668742832936 -0.0380085870938728 0.0
1.0444699442692940 -0.0376060558763294 0.0
1.1774497982399676 -0.0132550819768914 0.0
1.1857710549445442 -0.0129144092309272 0.0
1.1732883410982871 0.0141500044781164 0.0
1.1796865291060279 0.0140776399084747 0.0
1.0152258152690925 -0.0069036984483768 0.0
1.0004699974026423 -0.0058276214404086 0.0
0.9776742332858911 0.0083970495309789 0.0
0.9903429880417574 0.0092739707601357 0.0
0.9654119727828847 0.0148756234115359 0.0
0.9705802336454689 -0.0158912343536114 0.0
0.8889918417681152 0.0206379199079238 0.0
0.8840574455255658 0.0212436744287958 0.0
1.2191122207840697 -0.0088189546629648 0.0
1.2187484856756801 0.0043897605553592 0.0
1.1961391634980305 -0.0029291234726379 0.0
1.1943413264036697 -0.0034170167149262 0.0
0.9301281791902862 0.0046150044470574 0.0
0.9185754331364280 0.0001509184110524 0.0
0.9139301733219460 0.0014442136428412 0.0
0.9312440042989507 -0.0023764856896194 0.0
1.2251851891690453 0.0039474857725886 0.0
1.2258498546933483 -0.0111643657070666 0.0
1.1934923341567432 -0.0136997342129412 0.0
1.1859373383820639 -0.0102943307477698 0.0
0.9053491637950846 -0.0081627148239683 0.0
0.8848773740586428 0.0062856723938172 0.0
0.8883674107839125 -0.0070944332303644 0.0
0.9016589376504496 0.0071251142947136 0.0
0.9916192280733932 0.0128113269970293 0.0
0.9791825845415786 -0.0119223800363254 0.0
0.9811709375183776 0.0137855102062903 0.0
0.9937705609117388 -0.0116268666162904 0.0
1.2601542255484237 0.0168471940940044 0.0
1.2397010270020832 -0.0126307687690721 0.0
1.2406227390255999 0.0097855385505388 0.0
1.2570224263455254 -0.0195487409262568 0.0
1.2149076560548218 0.0091033484670622 0.0
1.2146745275375626 -0.0086593179867638 0.0
1.1580385769443273 0.0171860166320838 0.0
1.1538971383814125 -0.0233568565702656 0.0
1.2421661620034123 -0.0050953599075613 0.0
1.2421435325991237 0.0057867166181438 0.0
0.9223334140725171 -0.0106674907039933 0.0
0.8793089296936368 0.0121442428140058 0.0
0.9099066352369445 -0.0106271981121507 0.0
0.8924584848642562 0.0125010134931044 0.0
0.8106208436903313 -0.0941579972048395 0.0
0.8054375469905234 -0.0919124961201560 0.0
1.1726838987074584 0.0681211997477141 0.0
1.1776496405809860 0.0712494720334234 0.0
1.2237156641301565 -0.0048264849268724 0.0
1.2142345570923685 0.0014038591463900 0.0
1.2079923920778675 0.0000907189590913 0.0
1.2326572568351011 0.0066641896199622 0.0
0.9430772706843563 -0.0344415190116728 0.0
0.9357024066733007 0.0245334712200729 0.0
1.0404466596111444 -0.0901172911604610 0.0
1.0356892029267530 -0.0759807428384251 0.0
1.0451098392073104 0.0839161308685837 0.0
1.0484777934428811 0.0973755947471561 0.0
0.9967200014853261 -0.0181212746524506 0.0
0.9864125095831442 0.0322152160057007 0.0
0.9826980603666704 -0.0166723886464649 0.0
1.0007314290618856 0.0337879648411540 0.0
1.2097578882717603 -0.0069736207536809 0.0
1.2072136576353887 -0.0082450508491079 0.0
0.8908876811772781 -0.0167477714647566 0.0
0.9058432472919867 -0.0021254342176045 0.0
0.8873853845972700 0.0066631282182250 0.0
0.9073144028083648 0.0193779379354518 0.0
0.8754924501132001 -0.0121016425279913 0.0
0.8770350978413614 0.0103996335552850 0.0
1.1711402881807753 -0.0596030918636728 0.0
1.1651862257976890 -0.0655303521346279 0.0
1.2692144176751268 0.0879609966241758 0.0
1.2575447295440809 0.0893812829237442 0.0
0.7990693555787183 -0.0228957387255072 0.0
0.7888391958583356 -0.0244365300786658 0.0
0.8051385590792876 0.0232462939368418 0.0
0.7963844111434620 0.0238943905520774 0.0
1.2436852181510774 0.0077483848872058 0.0
1.2533019433828563 0.0087694068209912 0.0
1.1249884121264231 -0.0397303058204163 0.0
1.1296775178749008 -0.0353753212469309 0.0
1.1413864239936422 0.0336360411342978 0.0
1.1379528632864275 0.0386823841314650 0.0
1.0034646544789569 0.0201571355885477 0.0
0.9615685316414525 -0.0466561556689592 0.0
0.9893510505550391 0.0223403685486140 0.0
0.9764981980910564 -0.0444031104459271 0.0
1.2207872099657546 0.0011000331900396 0.0
1.2037301883885521 -0.0006258994847800 0.0
1.2109723393197789 0.0014464624406163 0.0
1.2128130419319534 -0.0006478341000532 0.0
1.2097929176564715 0.0040182321745377 0.0
1.2059106436499869 0.0013185299356285 0.0
0.8728418571396596 -0.0126068302267516 0.0
0.8789828721132849 0.0129213532826227 0.0
1.2071186499306881 0.0087595314843789 0.0
1.2145006863216652 0.0066233561016267 0.0
1.2754294223362348 -0.0266243587595849 0.0
1.2766418325971545 0.0162679699434937 0.0
0.9157762329897087 0.0426138160624500 0.0
0.9206652657223110 0.0428303294918267 0.0
1.2632201494006903 -0.0354314224674690 0.0
1.2544383595359616 0.0236139524507198 0.0
1.2543161990785605 -0.0333718366283593 0.0
1.2623916602567085 0.0242812034907832 0.0
1.2444639362761505 -0.0215578117723429 0.0
1.2462698223151092 0.0180575493519087 0.0
0.7281326429044228 -0.0106826663736232 0.0
0.7329307460570703 0.0102568991546108 0.0
1.2875346858095074 0.0031245572360468 0.0
1.2885364432441950 -0.0056762391963857 0.0
0.9947563524602263 0.1677658678524391 0.0
0.9947000967303247 -0.1596777376374120 0.0
1.1478306070062254 -0.0014807668678528 0.0
1.1456604940379225 0.0046092449729145 0.0
1.1684110016370284 0.0158058448898973 0.0
1.1647861764034948 -0.0229828923568897 0.0
1.2236996557909123 0.0093360008160015 0.0
1.2121783779731115 0.0093938747196324 0.0
1.1193395976600120 -0.0641415056982055 0.0
1.1253203229409117 -0.0668159976187436 0.0
1.1626594408992816 -0.0153001161516794 0.0
1.1578206792832668 0.0137238870141897 0.0
1.2645211680195925 0.0216035204963512 0.0
1.2637346638088762 -0.0258558709776316 0.0
1.1689128640896340 -0.0153507556920046 0.0
1.1648842340283290 0.0157222409282931 0.0
0.6958888532182426 0.0843141498379947 0.0
0.6865690111910127 0.0835113897001233 0.0
0.6872832519455215 -0.0755182730677657 0.0
0.6963069534420800 -0.0757707643707030 0.0
1.2662081043442093 -0.1118488719101076 0.0
1.2673082346708731 -0.1080983988949846 0.0
0.6722692498272692 0.0045849033253395 0.0
0.6741110402631717 -0.0073117185591104 0.0
1.3786169388538940 0.1636852467872404 0.0
1.3777983976225181 0.1684736873020549 0.0
0.7203234218421779 0.0915425237041515 0.0
0.7171031297628033 0.0914824001936675 0.0
1.2963814734128840 0.0202876824162583 0.0
1.2964394174874652 -0.0224630843148220 0.0
1.2615460676632828 -0.0219101844419577 0.0
1.2629522949455836 0.0224811857531987 0.0
1.1804584544476999 -0.1099868000123212 0.0
1.1833439224248112 -0.1198234989040000 0.0
1.1786125794513689 0.1578883267781901 0.0
1.1768313240841939 0.1463487368451358 0.0
1.1896955847774962 -0.0041476136974463 0.0
1.1957105711841971 -0.0040824717735356 0.0
0.7161177971635734 0.0702242874490828 0.0
0.6887753441185009 -0.0720752466094134 0.0
0.6915877649474843 0.0673377312789639 0.0
0.7127586262687893 -0.0745514340972055 0.0
0.7142859896204292 0.0151675666908892 0.0
0.7159603809946926 0.0160678293318709 0.0
0.7605849728397704 -0.0094353737947100 0.0
0.7625229978723831 -0.0122045542298344 0.0
1.0782763517380971 -0.0931590067358451 0.0
1.0802838783713347 -0.0791952432008419 0.0
1.0771061656792909 0.0860712419662991 0.0
1.0756786539082568 0.0996144305509349 0.0
1.1256460040417839 -0.1297282360111136 0.0
1.1496546510615897 0.1570151352527344 0.0
1.1942835197045112 0.0140041129665650 0.0
1.1867337225072827 0.0092417089147409 0.0
0.7406944526314641 0.0013080989273509 0.0
0.6927264897615050 0.0017191155119094 0.0
0.7437362819317492 -0.0014010451735346 0.0
0.6954892568567819 -0.0014719027469136 0.0
1.2115745064564412 0.0022290383373429 0.0
1.2111824851118125 -0.0004249566273549 0.0
1.2504445555807600 -0.0158574225711190 0.0
1.2630129032796473 -0.0161916061671701 0.0
0.9777229790696383 0.1789120046670222 0.0
0.9875467008172881 -0.1797798321423547 0.0
1.1775092144655466 0.0681516412735730 0.0
1.1624634007007275 0.0685669766136975 0.0
1.1860035911846967 -0.0801438550829420 0.0
1.1706040409580427 -0.0805645935863844 0.0
0.7980843449222285 -0.0981937589372392 0.0
0.7751429976508294 0.0671200850476827 0.0
0.5847340448570656 0.0019985307387829 0.0
0.5765070083528849 0.0014246321157444 0.0
0.5771872860969022 -0.0255080174111929 0.0
0.5857928221542558 -0.0268558513753237 0.0
0.6173268552143182 -0.0074667815303790 0.0
0.6172698104593847 0.0070352225068231 0.0
1.1490982068219524 0.1415441246764369 0.0
1.1390091177825490 -0.1340914031878697 0.0
0.7164958707164073 -0.0696584861791979 0.0
0.7050503415504559 0.0782435459539590 0.0
0.7056652976531987 -0.0683038256761601 0.0
0.7156963365242147 0.0797142432725196 0.0
1.3056454537285218 -0.0196779272615790 0.0
1.3079235659836499 0.0131288717806272 0.0
0.6684767407816089 0.0325027133011688 0.0
0.6791395731705090 -0.0460403164831897 0.0
0.9522239643459323 0.0370370163124029 0.0
0.9579662326216843 0.0433024958135922 0.0
0.9592098561034648 -0.0322303157161545 0.0
0.9538005655367345 -0.0263364195651268 0.0
0.9106125039357019 0.0008793994107929 0.0
0.9109286192748786 0.0156128330997230 0.0
0.7535465705346096 0.0701700262446687 0.0
0.7041100728131122 -0.0692589392832649 0.0
0.7414129352189728 0.0690894996412169 0.0
0.7151472248147983 -0.0704741239584279 0.0
1.1984291518702426 0.0013590477607688 0.0
1.1979468796207720 -0.0027587862538072 0.0
0.6677045993062167 -0.0757188879666736 0.0
0.6897587050030047 0.0536338579858677 0.0
0.6740988605329076 0.0662728447528418 0.0
0.6828205362807640 -0.0623165424197962 0.0
1.2603041085589355 -0.0328719767462430 0.0
1.2478770822789722 -0.0224054924391789 0.0
1.2325571682422647 -0.0234421090113343 0.0
1.2469957182667495 -0.0167655101130625 0.0
1.2169241176807273 -0.0181670213333639 0.0
1.2048319179088169 -0.0181890348152091 0.0
1.1996164395504776 -0.0106593567772674 0.0
1.2096492365158622 -0.0085046153578086 0.0
1.2524184238912084 -0.0262283366181170 0.0
1.2664388104437969 -0.0230686153050708 0.0
0.7374197049938397 -0.0009469007129704 0.0
0.7157318345469655 -0.0013402820776901 0.0
0.7283757569649572 -0.0026640109819316 0.0
0.7249425839501266 -0.0017029102594128 0.0