# vtk DataFile Version 3.0
LucasCarvalhoTCC Results
ASCII

DATASET POLYDATA
FIELD FieldData 1
TIME 1 1 double
2.0

POINTS 494 float
0.0 0.0 0.0
8.0 0.0 0.0
8.0 1.0 0.0
0.0 1.0 0.0
4.0 0.0 0.0
4.0 1.0 0.0
4.0 0.35 0.0
4.0 0.65 0.0
0.2010296266416496 1.0 0.0
0.3986915135488555 1.0 0.0
0.5930420631591132 1.0 0.0
0.7841367769318693 1.0 0.0
0.9720301907499852 1.0 0.0
1.156775924166146 1.0 0.0
1.33842670621592 1.0 0.0
1.517034389070868 1.0 0.0
1.69264994674003 1.0 0.0
1.865323550794866 1.0 0.0
2.035104414722059 1.0 0.0
2.202040983487818 1.0 0.0
2.366180993436638 1.0 0.0
2.527571282866703 1.0 0.0
2.686257831390245 1.0 0.0
2.842286022819771 1.0 0.0
2.995700353514032 1.0 0.0
3.146544637914273 1.0 0.0
3.294861880721452 1.0 0.0
3.440694398353104 1.0 0.0
3.58408394609007 1.0 0.0
3.725071294102791 1.0 0.0
3.863696788294668 1.0 0.0
4.136303211705004 1.0 0.0
4.274928705896546 1.0 0.0
4.415916053908917 1.0 0.0
4.55930560164552 1.0 0.0
4.7051381192768 1.0 0.0
4.853455362083593 1.0 0.0
5.004299646483437 1.0 0.0
5.157713977177285 1.0 0.0
5.313742168606385 1.0 0.0
5.472428717129489 1.0 0.0
5.6338190065591 1.0 0.0
5.797959016507455 1.0 0.0
5.96489558527273 1.0 0.0
6.134676449200184 1.0 0.0
6.307350053255487 1.0 0.0
6.482965610925135 1.0 0.0
6.661573293780584 1.0 0.0
6.843224075830887 1.0 0.0
7.027969809247587 1.0 0.0
7.215863223066262 1.0 0.0
7.4069579368396 1.0 0.0
7.601308486450315 1.0 0.0
7.798970373357896 1.0 0.0
8.0 0.7999999999999996 0.0
8.0 0.6000000000013874 0.0
8.0 0.4000000000016649 0.0
8.0 0.2000000000008324 0.0
7.798970373357898 0.0 0.0
7.601308486450317 0.0 0.0
7.406957936839601 0.0 0.0
7.215863223066265 0.0 0.0
7.02796980924759 0.0 0.0
6.843224075830888 0.0 0.0
6.661573293780592 0.0 0.0
6.482965610925139 0.0 0.0
6.307350053255492 0.0 0.0
6.134676449200188 0.0 0.0
5.964895585272735 0.0 0.0
5.797959016507459 0.0 0.0
5.633819006559103 0.0 0.0
5.472428717129493 0.0 0.0
5.313742168606389 0.0 0.0
5.157713977177288 0.0 0.0
5.004299646483441 0.0 0.0
4.853455362083597 0.0 0.0
4.705138119276803 0.0 0.0
4.559305601645523 0.0 0.0
4.415916053908919 0.0 0.0
4.274928705896549 0.0 0.0
4.136303211705007 0.0 0.0
3.863696788294383 0.0 0.0
3.725071294102209 0.0 0.0
3.584083946089184 0.0 0.0
3.440694398352564 0.0 0.0
3.29486188072223 0.0 0.0
3.146544637916415 0.0 0.0
2.995700353517581 0.0 0.0
2.842286022824779 0.0 0.0
2.68625783139676 0.0 0.0
2.527571282874774 0.0 0.0
2.366180993446318 0.0 0.0
2.202040983499156 0.0 0.0
2.035104414735112 0.0 0.0
1.865323550807426 0.0 0.0
1.692649946751479 0.0 0.0
1.517034389081164 0.0 0.0
1.338426706225015 0.0 0.0
1.156775924174005 0.0 0.0
0.9720301907565596 0.0 0.0
0.784136776937109 0.0 0.0
0.5930420631629705 0.0 0.0
0.3986915135514271 0.0 0.0
0.2010296266429896 0.0 0.0
0.0 0.199999999999558 0.0
0.0 0.3999999999989746 0.0
0.0 0.5999999999989464 0.0
0.0 0.7999999999994731 0.0
4.065082561150232 0.3648546699507293 0.0
4.117274722996153 0.4064765305061043 0.0
4.146239186965635 0.4666218605127571 0.0
4.146239186588658 0.5333781411388893 0.0
4.117274722147235 0.5935234705584039 0.0
4.065082560620447 0.6351453303044018 0.0
3.934917439190226 0.6351453302132268 0.0
3.882725277520537 0.5935234701418048 0.0
3.853760813071839 0.5333781396514286 0.0
3.853760813263242 0.4666218595099774 0.0
3.882725277782338 0.4064765295299076 0.0
3.934917439246251 0.3648546697597932 0.0
3.348071016817302 0.5037366844559412 0.0
4.65817771841185 0.4813089492125461 0.0
5.148432135339639 0.5000000000000013 0.0
2.851567863014233 0.5000000000000465 0.0
4.406326506211093 0.3072680842959042 0.0
3.575604791543614 0.6706702532911111 0.0
4.424395205595821 0.6706702556565258 0.0
3.593673497058965 0.3072680820819204 0.0
5.648652107845511 0.5000000000000006 0.0
2.351347890458042 0.4999999999998563 0.0
1.851146954963573 0.4999999999998219 0.0
6.148853043290459 0.4999999999999989 0.0
6.65089532386231 0.5241211434250735 0.0
1.349104674975677 0.4758788558671475 0.0
7.150713697794147 0.4858064203922342 0.0
0.8492863006035025 0.4858064203396458 0.0
4.216343713145164 0.2287135668575249 0.0
3.7836562881134 0.7712864338025908 0.0
4.346988371127422 0.5000000019594898 0.0
4.213775907987267 0.7756803165215952 0.0
3.653011628408684 0.4999999990051173 0.0
3.786224091202296 0.224319683220954 0.0
7.572712389010231 0.5763628491757339 0.0
0.4272876103144935 0.5763628498169726 0.0
4.881741322202974 0.3185523670790996 0.0
3.118258676783759 0.6814476337404539 0.0
3.126854924363118 0.2792890251323842 0.0
4.873145074373641 0.7207109754187309 0.0
5.398381996912613 0.291094588046412 0.0
5.396092528392672 0.7230702977293901 0.0
2.603907471650227 0.7230702981371074 0.0
2.601618001742297 0.2910945873520305 0.0
4.065645388412852 0.1903894420877926 0.0
3.934354612281609 0.8096105573695707 0.0
4.268393145079946 0.6292513280674802 0.0
3.731606853978594 0.3707486723017213 0.0
4.265062587797852 0.3723525870906427 0.0
3.734937412407246 0.6276474138958879 0.0
5.89991820844496 0.720584760457478 0.0
5.899661142431216 0.2940789491313893 0.0
2.100338856207466 0.7059210507243335 0.0
2.100081790085733 0.2794152396968363 0.0
4.648216390708278 0.2460745758417431 0.0
3.350865525112209 0.7519279174007294 0.0
3.351783614314077 0.2460745727859678 0.0
4.649134469923633 0.7519279206208029 0.0
6.386000070083336 0.2800687217561524 0.0
6.399946740387701 0.7091877900019353 0.0
1.613999929083956 0.7199312783619409 0.0
1.600053258667474 0.2908122092889953 0.0
1.099018086220021 0.3101534564461602 0.0
1.099018086220183 0.6898465435530818 0.0
6.900981912171285 0.3101534566801202 0.0
6.900981912171287 0.689846543319878 0.0
3.934891793257755 0.2336799984692873 0.0
4.065108206439434 0.7663200008196746 0.0
5.133077706310633 0.254681732561614 0.0
5.131620328745691 0.7509194919064351 0.0
2.866922291796803 0.7453182673725732 0.0
2.868379670398546 0.2490805081265555 0.0
0.5973224633027379 0.3123440263675117 0.0
7.402677535116692 0.3123440263206204 0.0
7.70928508668797 0.2984218335093966 0.0
0.2907149122204558 0.2984218350042115 0.0
2.359042531710287 0.2526358364218651 0.0
2.362552667743482 0.7498876177132479 0.0
5.640957467742433 0.2526358368965552 0.0
5.637447332034727 0.7498876177447886 0.0
7.330771635020911 0.7204300868765696 0.0
0.6692283641678903 0.7204300870263377 0.0
6.141991504218947 0.7500064293114952 0.0
6.143214654121697 0.2541610692540839 0.0
1.858008494097047 0.2499935706645152 0.0
1.856785344746094 0.7458389307817799 0.0
1.360037479834015 0.7503851535261052 0.0
1.363297687800482 0.2332108063209677 0.0
6.636702311691573 0.7667891933666813 0.0
6.639962519949044 0.2496148464378299 0.0
7.14328150074831 0.2292696686424185 0.0
0.8567184978980538 0.2292696684503961 0.0
4.845173759433459 0.5000000012080886 0.0
3.15482623877425 0.4999999993865263 0.0
3.514470413944982 0.5755907957035395 0.0
4.485529584365944 0.5755907996488695 0.0
4.350214515329574 0.8947484376274254 0.0
3.64978548377064 0.1052515623441257 0.0
4.356280753270322 0.1397878825788729 0.0
3.643719248073251 0.8602121180766233 0.0
4.157657982820168 0.3023031440803671 0.0
3.842342017851872 0.6976968563131654 0.0
4.149794964153143 0.6947625877680722 0.0
3.850205035403508 0.3052374120341299 0.0
4.252863769441745 0.5000000013253333 0.0
3.747136230269581 0.4999999993774377 0.0
2.66150837620265 0.4835883053501762 0.0
5.338491622258749 0.4835883052760253 0.0
7.732076714471282 0.7613785341653052 0.0
0.267923285219987 0.7613785345749642 0.0
3.482582425594127 0.3988584940714734 0.0
4.517417574829351 0.3988584973195787 0.0
7.120961454429095 0.7969630876933931 0.0
0.8790385446795201 0.7969630878928393 0.0
4.524178509919695 0.1937066442020419 0.0
3.472973035782958 0.803602443762734 0.0
4.527026959328886 0.8036024455277256 0.0
3.475821495314308 0.1937066425220846 0.0
5.834485749168302 0.4775259269822466 0.0
2.16551424934095 0.5224740729963462 0.0
4.803832126993392 0.8343163881584211 0.0
3.196167871756218 0.1656836120733276 0.0
3.196167870279283 0.834316388182051 0.0
4.803832130306974 0.1656836112805605 0.0
1.646902821176459 0.5088844228822333 0.0
6.35309717778631 0.4911155766888507 0.0
4.128745436683365 0.8608937921704661 0.0
3.871254562700506 0.1391062074145501 0.0
7.783519314041498 0.4824599318584197 0.0
0.2164806854160975 0.4824599323519634 0.0
3.981228286637499 0.1341601386487245 0.0
4.018771713398118 0.8658398609794804 0.0
4.757705393330306 0.6277793253200102 0.0
3.245404476813698 0.3720431195654205 0.0
3.262406961538709 0.609092082228193 0.0
4.738552632749474 0.3854106153034425 0.0
4.980576921401999 0.1828043249223437 0.0
3.019423077460087 0.8171956749482756 0.0
4.975386875116307 0.8288560892267683 0.0
3.024613123995747 0.1711439108946455 0.0
7.537862127958827 0.7914398748884439 0.0
0.46213787149577 0.7914398749623154 0.0
4.150965283491015 0.1232311208167031 0.0
3.849034718225983 0.8767688792466098 0.0
0.6330166515036239 0.5212993800799176 0.0
7.366983347335347 0.5212993798709434 0.0
5.001451172914062 0.4591396125040952 0.0
2.998548825585332 0.5408603877155073 0.0
5.250532135494552 0.1623854812497458 0.0
5.24999687257574 0.8404382486850067 0.0
2.749794930508214 0.8396380739052673 0.0
2.749676059914328 0.161585306286623 0.0
1.150631951549359 0.5017906253149568 0.0
6.85747267660715 0.5137706215776152 0.0
2.938770240933895 0.3859183074771494 0.0
5.061229757952985 0.6140816927005173 0.0
5.521883200863776 0.8371838481144578 0.0
5.520780843451154 0.1567733764659754 0.0
2.479219155991939 0.1567733759623464 0.0
2.478116798894765 0.8371838481096507 0.0
2.208224060227917 0.1725929992863016 0.0
2.214655190115911 0.821187355218689 0.0
5.791775938918927 0.8274070011383262 0.0
5.785558009721889 0.1789659155514431 0.0
5.243140500145841 0.3651007420679131 0.0
5.247758683472709 0.6318228659349833 0.0
2.748336099792684 0.6332079670712092 0.0
2.766145970608876 0.3583112578457802 0.0
2.500794992947401 0.4517155340697119 0.0
5.499205006433885 0.4517155344186723 0.0
3.472119223331378 0.69283875816516 0.0
4.527880773131323 0.6928387614752662 0.0
2.445947440949104 0.6396216022327238 0.0
5.554052558509333 0.6396216019605415 0.0
1.976669571201813 0.1631348676957265 0.0
[...]
POINT_DATA 494

VECTORS Velocity float
0.0000000000000000 0.0000000000000000 0.0
0.8198943609330794 -0.1381154136364333 0.0
0.0000000000000000 0.0000000000000000 0.0
0.0000000000000000 0.0000000000000000 0.0
0.0000000000000000 0.0000000000000000 0.0
0.0000000000000000 0.0000000000000000 0.0
0.0000000000000000 0.0000000000000000 0.0
0.0000000000000000 0.0000000000000000 0.0
0.0000000000000000 0.0000000000000000 0.0
0.0000000000000000 0.0000000000000000 0.0
0.0000000000000000 0.0000000000000000 0.0
0.0000000000000000 0.0000000000000000 0.0
0.0000000000000000 0.0000000000000000 0.0
0.0000000000000000 0.0000000000000000 0.0
0.0000000000000000 0.0000000000000000 0.0
0.0000000000000000 0.0000000000000000 0.0
0.0000000000000000 0.0000000000000000 0.0
0.0000000000000000 0.0000000000000000 0.0
0.0000000000000000 0.0000000000000000 0.0
0.0000000000000000 0.0000000000000000 0.0
0.0000000000000000 0.0000000000000000 0.0
0.0000000000000000 0.0000000000000000 0.0
0.0000000000000000 0.0000000000000000 0.0
0.0000000000000000 0.0000000000000000 0.0
0.0000000000000000 0.0000000000000000 0.0
0.0000000000000000 0.0000000000000000 0.0
0.0000000000000000 0.0000000000000000 0.0
0.0000000000000000 0.0000000000000000 0.0
0.0000000000000000 0.0000000000000000 0.0
0.0000000000000000 0.0000000000000000 0.0
0.0000000000000000 0.0000000000000000 0.0
0.0000000000000000 0.0000000000000000 0.0
0.0000000000000000 0.0000000000000000 0.0
0.0000000000000000 0.0000000000000000 0.0
0.0000000000000000 0.0000000000000000 0.0
0.0000000000000000 0.0000000000000000 0.0
0.0000000000000000 0.0000000000000000 0.0
0.0000000000000000 0.0000000000000000 0.0
0.0000000000000000 0.0000000000000000 0.0
0.0000000000000000 0.0000000000000000 0.0
0.0000000000000000 0.0000000000000000 0.0
0.0000000000000000 0.0000000000000000 0.0
0.0000000000000000 0.0000000000000000 0.0
0.0000000000000000 0.0000000000000000 0.0
0.0000000000000000 0.0000000000000000 0.0
0.0000000000000000 0.0000000000000000 0.0
0.0000000000000000 0.0000000000000000 0.0
0.0000000000000000 0.0000000000000000 0.0
0.0000000000000000 0.0000000000000000 0.0
0.0000000000000000 0.0000000000000000 0.0
0.0000000000000000 0.0000000000000000 0.0
0.0000000000000000 0.0000000000000000 0.0
0.0000000000000000 0.0000000000000000 0.0
0.0000000000000000 0.0000000000000000 0.0
1.0772267838665837 0.5430179490667398 0.0
0.9956166127627964 0.1356308849912270 0.0
0.9603669322536137 -0.0895462068694668 0.0
1.0634140067640367 -0.4542678901334397 0.0
0.0000000000000000 0.0000000000000000 0.0
0.0000000000000000 0.0000000000000000 0.0
0.0000000000000000 0.0000000000000000 0.0
0.0000000000000000 0.0000000000000000 0.0
0.0000000000000000 0.0000000000000000 0.0
0.0000000000000000 0.0000000000000000 0.0
0.0000000000000000 0.0000000000000000 0.0
0.0000000000000000 0.0000000000000000 0.0
0.0000000000000000 0.0000000000000000 0.0
0.0000000000000000 0.0000000000000000 0.0
0.0000000000000000 0.0000000000000000 0.0
0.0000000000000000 0.0000000000000000 0.0
0.0000000000000000 0.0000000000000000 0.0
0.0000000000000000 0.0000000000000000 0.0
0.0000000000000000 0.0000000000000000 0.0
0.0000000000000000 0.0000000000000000 0.0
0.0000000000000000 0.0000000000000000 0.0
0.0000000000000000 0.0000000000000000 0.0
0.0000000000000000 0.0000000000000000 0.0
0.0000000000000000 0.0000000000000000 0.0
0.0000000000000000 0.0000000000000000 0.0
0.0000000000000000 0.0000000000000000 0.0
0.0000000000000000 0.0000000000000000 0.0
0.0000000000000000 0.0000000000000000 0.0
0.0000000000000000 0.0000000000000000 0.0
0.0000000000000000 0.0000000000000000 0.0
0.0000000000000000 0.0000000000000000 0.0
0.0000000000000000 0.0000000000000000 0.0
0.0000000000000000 0.0000000000000000 0.0
0.0000000000000000 0.0000000000000000 0.0
0.0000000000000000 0.0000000000000000 0.0
0.0000000000000000 0.0000000000000000 0.0
0.0000000000000000 0.0000000000000000 0.0
0.0000000000000000 0.0000000000000000 0.0
0.0000000000000000 0.0000000000000000 0.0
0.0000000000000000 0.0000000000000000 0.0
0.0000000000000000 0.0000000000000000 0.0
0.0000000000000000 0.0000000000000000 0.0
0.0000000000000000 0.0000000000000000 0.0
0.0000000000000000 0.0000000000000000 0.0
0.0000000000000000 0.0000000000000000 0.0
0.0000000000000000 0.0000000000000000 0.0
0.0000000000000000 0.0000000000000000 0.0
0.0000000000000000 0.0000000000000000 0.0
0.0000000000000000 0.0000000000000000 0.0
0.0000000000000000 0.0000000000000000 0.0
1.0000000000000000 0.0000000000000000 0.0
1.0000000000000000 0.0000000000000000 0.0
1.0000000000000000 0.0000000000000000 0.0
1.0000000000000000 0.0000000000000000 0.0
0.0000000000000000 0.0000000000000000 0.0
0.0000000000000000 0.0000000000000000 0.0
0.0000000000000000 0.0000000000000000 0.0
0.0000000000000000 0.0000000000000000 0.0
0.0000000000000000 0.0000000000000000 0.0
0.0000000000000000 0.0000000000000000 0.0
0.0000000000000000 0.0000000000000000 0.0
0.0000000000000000 0.0000000000000000 0.0
0.0000000000000000 0.0000000000000000 0.0
0.0000000000000000 0.0000000000000000 0.0
0.0000000000000000 0.0000000000000000 0.0
0.0000000000000000 0.0000000000000000 0.0
1.5506476465408250 -0.0044498903757721 0.0
1.5535950915742089 0.0165817137343908 0.0
1.6221032848202739 -0.0101419028056427 0.0
1.6194902473898352 -0.0204060383650788 0.0
1.3548108637039848 0.0672979416637398 0.0
1.3715694796908946 0.0561144668843094 0.0
1.4020144746123187 -0.1040336250300311 0.0
1.3852383081148547 -0.1191941968861091 0.0
1.6022861494069727 0.0021728496963327 0.0
1.6014831348324390 -0.0041435631563236 0.0
1.5522854627158820 0.0042918207177733 0.0
1.5512338641277938 -0.0007439796097127 0.0
1.5686300202451369 -0.0309223679403898 0.0
1.5687975481668641 0.0152181976499551 0.0
1.6514526476700193 0.0085523616177113 0.0
1.6481891898302410 -0.0157802463972398 0.0
1.3287403575838010 0.3000270361518714 0.0
1.3278237551958234 0.2952137077524017 0.0
1.3195265139466386 0.0207989652739770 0.0
1.3656993991500717 -0.2168161970423576 0.0
1.3187069230058308 0.0155285334993243 0.0
1.3667210599191537 -0.2194820299137256 0.0
1.5485310770979528 0.0153560824453925 0.0
1.5318570735842267 -0.0351646354601384 0.0
1.3397151515275083 0.0119681795299993 0.0
1.3392116612448295 0.0107632969601757 0.0
1.2735780315535667 -0.0057985913150546 0.0
1.2635942799567932 -0.0061958806395738 0.0
1.3060810284843398 -0.0047772007196361 0.0
1.2152807134481627 -0.0145367502024984 0.0
1.1897933128274480 0.0087686525975787 0.0
1.3246521894023899 0.0018976122706035 0.0
1.4606793876053803 0.1326071424953669 0.0
1.4610783616283116 0.1307154972944127 0.0
1.4152127229655034 -0.2573962958414054 0.0
1.4202574250532676 -0.2599090337663136 0.0
1.4369341356636762 0.3305518167118191 0.0
1.4312822644512646 0.3310109482460797 0.0
1.1852738015085376 -0.0294844393755862 0.0
1.3009354167052485 -0.0060672573513518 0.0
1.2919659690021263 -0.0130315376546766 0.0
1.1904345532730050 -0.0300622378719778 0.0
1.0978507573077678 -0.0549097966152885 0.0
1.1000073779799620 -0.0457360918906872 0.0
1.1153295283624685 0.0313884646104194 0.0
1.1202237422826731 0.0184320980687743 0.0
1.2541564102996283 0.0052894324362034 0.0
1.2417199328277180 -0.0192335298507237 0.0
1.2439085732641231 0.0162322072684990 0.0
1.2508794481656571 -0.0048163782120937 0.0
1.4389304934936442 -0.0282609899924886 0.0
1.3220936517983943 0.0545455824799646 0.0
1.4427368548787638 0.0311919596039331 0.0
1.3152460738047076 -0.0482504973494519 0.0
1.5803947729760113 -0.2198439762865152 0.0
1.5798644145244773 -0.2196769534233209 0.0
1.1634259048147748 -0.0487448522289515 0.0
1.1858308364501700 0.0524785099080935 0.0
1.1514775188955320 -0.0543354190334673 0.0
1.1940154209888993 0.0394137566572763 0.0
1.4298004538494626 0.0300160122716242 0.0
1.4394405773058092 -0.0275688964088187 0.0
1.2941306285627094 -0.1603261254932868 0.0
1.2813511220457274 0.1929197143056933 0.0
1.1930404422568726 0.0520519696408696 0.0
1.1449296701151672 -0.0043315955937517 0.0
1.1893943033664673 -0.0374079861461823 0.0
1.1592770857758046 0.0318771676261970 0.0
1.2892435776872024 0.0081604490339512 0.0
1.2951843828191620 -0.0142592684392627 0.0
1.1607153034027584 0.0375714521593643 0.0
1.2188682727475069 -0.0657433471996069 0.0
1.1645630510670819 0.0403299400316357 0.0
1.2146106496953522 -0.0642982503278905 0.0
1.1726079375443270 0.0688539403987213 0.0
1.1455229939890996 -0.0405807346255410 0.0
1.1054884439695365 -0.0581988090271086 0.0
1.2044857125714381 0.0514702938421969 0.0
1.1058289209143815 -0.0234487202266788 0.0
1.1009301749803257 0.0189503027306011 0.0
1.5818229517097351 0.0103888639222504 0.0
1.5830909709306922 0.0008594763603350 0.0
1.4509676161864400 0.0369203177643218 0.0
1.4622767162499000 -0.0660797704945350 0.0
0.4939679142604355 -0.0104628813872791 0.0
0.4777049340298878 -0.0117664282308741 0.0
0.5916481212023955 0.1036316865548618 0.0
0.6093361824784319 0.1031636827134941 0.0
1.4617499005192172 0.4311225670225994 0.0
1.4572573299941234 0.4286468463670322 0.0
1.5377656109802338 -0.3435946306364923 0.0
1.5396372688869622 -0.3437707344510711 0.0
0.9737074498066132 0.0262484806435844 0.0
0.9741362155379478 0.0380355202510150 0.0
1.6028405233815270 0.0290679488598194 0.0
1.5961870505637119 -0.0407564608215764 0.0
1.1603172724715902 0.1957535599992833 0.0
1.1965610932878334 -0.2742515531522823 0.0
1.4836869137353403 -0.0529741975679928 0.0
1.4684110338306067 0.0188031884825592 0.0
0.7390004997371740 -0.0079702117089992 0.0
0.7596465114536795 0.0066855577323412 0.0
0.9320344768808676 -0.0170868530887272 0.0
0.9428391174673801 -0.0203214830326294 0.0
0.9576619710048627 0.0032510643103135 0.0
0.9498987159151112 0.0027820110008641 0.0
1.5701425373512690 -0.0244968629823978 0.0
1.5695900396776339 -0.0498859605592722 0.0
0.6809150616689430 -0.0871408429918591 0.0
0.6814653260244454 -0.0884015140029767 0.0
0.7269208960098986 0.0687273587526079 0.0
0.7280031782323684 0.0677210196402405 0.0
1.4924313871220447 0.0442369122549357 0.0
1.4928402487475709 0.0323236630909381 0.0
0.9049095920899344 -0.1174826505122668 0.0
0.9057636137383188 -0.1201979253547155 0.0
1.3568217428890745 0.0001792135378394 0.0
1.2760647531179370 0.0142799688939717 0.0
1.0031088863146951 -0.0915336282058531 0.0
1.0035864645525334 -0.0915049257139185 0.0
1.4986007990045473 -0.0343964724315853 0.0
1.5057047935321637 -0.0377379951558941 0.0
1.4640992464802338 0.0471257746351489 0.0
1.4692033991234936 0.0536950802505001 0.0
0.7635639518767018 -0.0043728527932900 0.0
0.7653723651440382 -0.0039820524585814 0.0
0.7171197476565597 0.0179206366178111 0.0
0.7081864831601066 0.0149788414078466 0.0
0.8183278095711767 0.0370079772108080 0.0
0.8407436077380682 -0.0645706944817720 0.0
0.7505338800038199 0.0848524829230034 0.0
0.7529269756778616 0.0823050098924609 0.0
1.5757546102200737 -0.0120039513767206 0.0
1.5856694382484087 0.0068232278877716 0.0
1.5732820581716069 -0.0076519675815049 0.0
1.5738196631537262 -0.0097960732347158 0.0
0.7079678207632474 -0.0014949137412525 0.0
0.7310267976832189 0.0243094955695774 0.0
0.7136521109355227 -0.0121869902997316 0.0
0.7090117777068171 0.0159558481987646 0.0
1.6222968342142619 0.0003036045975059 0.0
1.6257998476865168 -0.0460201613713126 0.0
1.5081701445436573 -0.0190809486774592 0.0
1.5085231548044333 -0.0188403708365746 0.0
0.7187428887052816 -0.0102144063606389 0.0
0.6421703839314704 0.0175188587281383 0.0
0.6531370220273913 -0.0187035167912036 0.0
0.7024868074102060 0.0090114151165224 0.0
0.8094644324923899 0.0314382783361548 0.0
0.7828797533032571 -0.0203320884106305 0.0
0.8139827426082976 0.0212840050113635 0.0
0.7961486558885875 -0.0267732453623586 0.0
1.4117012235863602 -0.0053661121013053 0.0
1.4339618720944498 -0.0010982287081289 0.0
1.4154453769339526 -0.0009080304541265 0.0
1.4331194620263124 0.0011233855002479 0.0
1.5711818503669412 0.0039953649561498 0.0
1.5608617550033081 -0.0103373579168344 0.0
1.3183077619364549 0.0111855229510896 0.0
1.3553941077165377 -0.0320087978473954 0.0
1.4080740364074078 0.0043012679568019 0.0
1.4141710013504676 -0.0118823505967637 0.0
0.7267390673575854 -0.0172993172473172 0.0
0.6711650581583438 0.0200393597847341 0.0
0.7271079295269074 -0.0189959245513405 0.0
0.6735192738762504 0.0209782604277238 0.0
0.5698194240781358 -0.1129672698916250 0.0
0.5732098422483540 -0.1081101866503150 0.0
1.2872973763797888 0.1143318675195043 0.0
1.2863560207836573 0.1122337313621015 0.0
1.4182238265662677 -0.0123452862013196 0.0
1.3810797089902078 -0.0359976309536736 0.0
1.3854518002853251 0.0228844097815388 0.0
1.4190039702832262 -0.0012936879888340 0.0
0.7986451469340340 -0.0644276345372857 0.0
0.7987648651616343 0.0741018454929586 0.0
1.1088407103529723 -0.1445304036353442 0.0
1.1084637377079471 -0.1391742629238245 0.0
1.1168771767220829 0.2035690036999933 0.0
1.1126212451825495 0.2060724474439200 0.0
0.8473209175999614 -0.0425919607467818 0.0
0.8106719588018336 0.0493125790644453 0.0
0.8423520284373054 -0.0391015179964407 0.0
0.8166986618760124 0.0543902403745172 0.0
1.5481827483215749 -0.0101872655513903 0.0
1.5481108256446319 -0.0174511876660926 0.0
0.6859633980810746 -0.0205538889006040 0.0
0.7064524665360354 0.0037840425932676 0.0
0.6511002792889683 0.0243137891236884 0.0
0.7316906270657263 0.0416872483097390 0.0
0.6633693663826983 0.0010375619503021 0.0
0.6675866752531919 -0.0016077701751201 0.0
1.4105276726893250 -0.1925649010468261 0.0
1.4065936907038750 -0.1865801534560361 0.0
1.2842888966421231 0.2438501847844299 0.0
1.2836604307952237 0.2296922115591819 0.0
0.5002889291712637 -0.0518732146846253 0.0
0.5064427234834299 -0.0512671354295249 0.0
0.5080085107879073 0.0520327539580096 0.0
0.5142325873566550 0.0503692891964772 0.0
1.4011615516364710 -0.0065425781073548 0.0
1.4049754568090533 -0.0033088174013172 0.0
1.3938149495394487 -0.1471314259792056 0.0
1.4053396876321707 -0.1459776106597436 0.0
1.4247869185198785 0.1585806698103206 0.0
1.4091521760752215 0.1567507213017504 0.0
0.8530476414555854 0.0399043636218661 0.0
0.7485906450009212 -0.1080873092491650 0.0
0.8407815560405130 0.0498737358273047 0.0
0.7648468544444416 -0.0934727074724078 0.0
1.3943189388426669 -0.0440106041411047 0.0
1.3686988148124990 0.0503980699918037 0.0
1.3893367519661928 -0.0386016541609918 0.0
1.3723575179802041 0.0568161171629954 0.0
1.5067264212203804 -0.0023398093927152 0.0
1.5053777356604816 -0.0287021093404944 0.0
0.6485663648745490 0.0012179643170185 0.0
0.6520045619808003 0.0053497776033607 0.0
1.3889186336875055 0.0764154306795737 0.0
1.3994844935221908 0.0536898309482911 0.0
1.5182472739050559 -0.0407137057918338 0.0
1.4948474298497412 0.0445306569551167 0.0
0.7138979412235646 0.0846879300690437 0.0
0.7022877925059726 0.0915216561883540 0.0
1.4594851892997138 -0.0286915407842528 0.0
1.4142905997257034 0.0358040685166363 0.0
1.4147173134663911 -0.0504163431475025 0.0
1.4584900446768880 0.0044438802680951 0.0
1.6286444770300863 0.0155012877191396 0.0
1.6421391637911327 -0.0224529692455594 0.0
0.5057249679614261 0.0006287038597046 0.0
0.5042398715649368 0.0014262494399241 0.0
1.5259668863747140 -0.0287472624170137 0.0
1.5238969068990571 0.0284511935594365 0.0
0.9375367132690089 0.2269165794185287 0.0
0.9056309915909762 -0.2233654665438108 0.0
1.4531641583846502 -0.0143707754419786 0.0
1.4541040861440613 -0.0029356350531021 0.0
1.3196254807006549 0.0086949006858310 0.0
1.3565186892064496 -0.0333619136145751 0.0
1.3239248632324561 -0.0110362483863118 0.0
1.3267419944213710 -0.0120152975725896 0.0
1.2039785646827124 -0.1141486808019442 0.0
1.2040326052380714 -0.1144583603460559 0.0
1.4663360717606184 -0.0228237676233061 0.0
1.4219911989684324 0.0100871931769828 0.0
1.4517009085659376 -0.0292226826328539 0.0
1.4410853818000211 0.0302336421806474 0.0
1.4733735756930413 -0.0272823584180633 0.0
1.4283611573590471 0.0144095290366008 0.0
0.4360137256103530 0.0503983336653054 0.0
0.4383582948267941 0.0465430797734558 0.0
0.4312809074170020 -0.0338159586131582 0.0
0.4245948789234215 -0.0374515242604840 0.0
1.4361991377551750 -0.3157370632907597 0.0
1.4373853286929301 -0.3177211308681942 0.0
0.3981479081907977 0.0064752720728203 0.0
0.4065716919161265 -0.0106128397733083 0.0
1.5146803748500968 0.3137860505181714 0.0
1.5159074734781581 0.3092494885881611 0.0
0.5917010319712125 0.0971978268921548 0.0
0.5926290931228946 0.0962102743144613 0.0
1.5162268814799349 0.0226184414403495 0.0
1.5186998768659468 -0.0218207069789717 0.0
1.3280279094546414 -0.0155650301585014 0.0
1.3395913250408118 0.0163524555335082 0.0
1.4511758639262173 -0.3484792386394588 0.0
1.4474997211530414 -0.3475080217559131 0.0
1.3952980743600036 0.4610159470348577 0.0
1.4045322689214583 0.4564191012019606 0.0
1.5695405090153967 0.0046212917804277 0.0
1.5690728499123958 0.0033610666103335 0.0
0.4887668148616851 0.0556596833211356 0.0
0.4684454900667834 -0.0608735412938259 0.0
0.4820834396933330 0.0591977526470585 0.0
0.4777006190631343 -0.0575503965184207 0.0
0.4056829427299172 0.0266566123297486 0.0
0.4253210200200446 0.0268541833533013 0.0
0.4444527460165932 -0.0145474645318578 0.0
0.4644304675061599 -0.0159051511367985 0.0
1.2134064966794758 -0.1924436463831016 0.0
1.2287210274390465 -0.1918249244730315 0.0
1.2466227785060970 0.2574640689754726 0.0
1.2322148635363337 0.2585172960638907 0.0
1.2064246842856927 -0.2723394864793386 0.0
1.1808142016692982 0.2657887937904760 0.0
1.4454880729740109 0.0070674168187890 0.0
1.4517134562872633 0.0157599423844895 0.0
0.5127383608782735 -0.0087808737711759 0.0
0.4888928555410551 -0.0004142723113129 0.0
0.5213436745175951 0.0135180082526969 0.0
0.5005817707999574 0.0041196612794460 0.0
1.4804969761341595 -0.0172006372960643 0.0
1.4696884575150617 0.0051591711725765 0.0
1.3309695854841888 -0.0238961214398763 0.0
1.3332195853926658 -0.0225605895292283 0.0
0.8729105718256159 0.2640235871614804 0.0
0.9353091652231319 -0.2433088105113685 0.0
1.0537404994241215 0.0833747906631855 0.0
1.0572947806540405 0.0886123331694404 0.0
1.0729593963952997 -0.1080953032522056 0.0
1.0705782409275197 -0.1093005159234558 0.0
0.6351555026658123 -0.1338687420612162 0.0
0.6498413898270134 0.1419527481752055 0.0
0.2959790883400200 -0.0261513569487638 0.0
0.2982347049099112 -0.0250864224126274 0.0
0.3045089623490634 -0.0087725326508972 0.0
0.3040737858869676 -0.0085706012652176 0.0
0.3583500870182579 -0.0116263348624600 0.0
0.3585322613684819 0.0117479147677194 0.0
1.2246133844280149 0.3269813120907287 0.0
1.1734980510880284 -0.2642047308382500 0.0
0.5071808324169801 -0.0602547638950164 0.0
0.4973829298167279 0.0722244769022042 0.0
0.5053830419085413 -0.0593836944729226 0.0
0.4994719082249417 0.0739796222162152 0.0
1.4843453054222342 0.0485772850830743 0.0
1.4940225180830717 -0.0614443661661884 0.0
0.4531296301921351 0.0756391805113086 0.0
0.5227633413083650 -0.1241067263423826 0.0
0.9567672286786738 0.0542526174627545 0.0
0.9532309022303276 0.0529231499630292 0.0
0.9765882564904382 -0.0506680046979589 0.0
0.9769758770913898 -0.0501666207757009 0.0
0.8710904787744741 0.0242163555107659 0.0
0.8714846046413814 0.0341161593329267 0.0
0.5352616610037635 0.0451940779486424 0.0
0.5111614768946966 -0.0582403054063629 0.0
0.5324791289686019 0.0441486347860965 0.0
0.5103367346699206 -0.0582615403404031 0.0
1.5377447381346818 -0.0056483796109412 0.0
1.5353903542297274 -0.0024621399301970 0.0
0.4283040838152093 -0.0725432867922616 0.0
0.4749840749805588 0.0499573873182638 0.0
0.4617099102077250 0.0610562624890562 0.0
0.4457153468910873 -0.0610354893299460 0.0
1.0442825526202384 0.0308969898938413 0.0
1.0754310071994615 0.0345349479617145 0.0
1.1047600755791653 -0.0512752286517262 0.0
1.0849419520513490 -0.0534180634201526 0.0
1.3150441512179210 0.0110672378699243 0.0
1.3111256383102712 0.0197589192786970 0.0
1.3553059235559650 -0.0659503049096532 0.0
1.3665594150057008 -0.0417643622321287 0.0
1.0823495384512272 -0.1111177830222894 0.0
1.0801610040834462 -0.1159406634267780 0.0
0.5313068418715522 -0.0021645696987088 0.0
0.5313250799539573 0.0071882373306298 0.0
0.5372248871446905 0.0042350373091451 0.0
0.5236214129530293 -0.0059055721484639 0.0