# vtk DataFile Version 3.0
LucasCarvalhoTCC Results
ASCII

DATASET POLYDATA
FIELD FieldData 1
TIME 1 1 double
2.6

POINTS 494 float
0.0 0.0 0.0
8.0 0.0 0.0
8.0 1.0 0.0
0.0 1.0 0.0
4.0 0.0 0.0
4.0 1.0 0.0
4.0 0.35 0.0
4.0 0.65 0.0
0.2010296266416496 1.0 0.0
0.3986915135488555 1.0 0.0
0.5930420631591132 1.0 0.0
0.7841367769318693 1.0 0.0
0.9720301907499852 1.0 0.0
1.156775924166146 1.0 0.0
1.33842670621592 1.0 0.0
1.517034389070868 1.0 0.0
1.69264994674003 1.0 0.0
1.865323550794866 1.0 0.0
2.035104414722059 1.0 0.0
2.202040983487818 1.0 0.0
2.366180993436638 1.0 0.0
2.527571282866703 1.0 0.0
2.686257831390245 1.0 0.0
2.842286022819771 1.0 0.0
2.995700353514032 1.0 0.0
3.146544637914273 1.0 0.0
3.294861880721452 1.0 0.0
3.440694398353104 1.0 0.0
3.58408394609007 1.0 0.0
3.725071294102791 1.0 0.0
3.863696788294668 1.0 0.0
4.136303211705004 1.0 0.0
4.274928705896546 1.0 0.0
4.415916053908917 1.0 0.0
4.55930560164552 1.0 0.0
4.7051381192768 1.0 0.0
4.853455362083593 1.0 0.0
5.004299646483437 1.0 0.0
5.157713977177285 1.0 0.0
5.313742168606385 1.0 0.0
5.472428717129489 1.0 0.0
5.6338190065591 1.0 0.0
5.797959016507455 1.0 0.0
5.96489558527273 1.0 0.0
6.134676449200184 1.0 0.0
6.307350053255487 1.0 0.0
6.482965610925135 1.0 0.0
6.661573293780584 1.0 0.0
6.843224075830887 1.0 0.0
7.027969809247587 1.0 0.0
7.215863223066262 1.0 0.0
7.4069579368396 1.0 0.0
7.601308486450315 1.0 0.0
7.798970373357896 1.0 0.0
8.0 0.7999999999999996 0.0
8.0 0.6000000000013874 0.0
8.0 0.4000000000016649 0.0
8.0 0.2000000000008324 0.0
7.798970373357898 0.0 0.0
7.601308486450317 0.0 0.0
7.406957936839601 0.0 0.0
7.215863223066265 0.0 0.0
7.02796980924759 0.0 0.0
6.843224075830888 0.0 0.0
6.661573293780592 0.0 0.0
6.482965610925139 0.0 0.0
6.307350053255492 0.0 0.0
6.134676449200188 0.0 0.0
5.964895585272735 0.0 0.0
5.797959016507459 0.0 0.0
5.633819006559103 0.0 0.0
5.472428717129493 0.0 0.0
5.313742168606389 0.0 0.0
5.157713977177288 0.0 0.0
5.004299646483441 0.0 0.0
4.853455362083597 0.0 0.0
4.705138119276803 0.0 0.0
4.559305601645523 0.0 0.0
4.415916053908919 0.0 0.0
4.274928705896549 0.0 0.0
4.136303211705007 0.0 0.0
3.863696788294383 0.0 0.0
3.725071294102209 0.0 0.0
3.584083946089184 0.0 0.0
3.440694398352564 0.0 0.0
3.29486188072223 0.0 0.0
3.146544637916415 0.0 0.0
2.995700353517581 0.0 0.0
2.842286022824779 0.0 0.0
2.68625783139676 0.0 0.0
2.527571282874774 0.0 0.0
2.366180993446318 0.0 0.0
2.202040983499156 0.0 0.0
2.035104414735112 0.0 0.0
1.865323550807426 0.0 0.0
1.692649946751479 0.0 0.0
1.517034389081164 0.0 0.0
1.338426706225015 0.0 0.0
1.156775924174005 0.0 0.0
0.9720301907565596 0.0 0.0
0.784136776937109 0.0 0.0
0.5930420631629705 0.0 0.0
0.3986915135514271 0.0 0.0
0.2010296266429896 0.0 0.0
0.0 0.199999999999558 0.0
0.0 0.3999999999989746 0.0
0.0 0.5999999999989464 0.0
0.0 0.7999999999994731 0.0
4.065082561150232 0.3648546699507293 0.0
4.117274722996153 0.4064765305061043 0.0
4.146239186965635 0.4666218605127571 0.0
4.146239186588658 0.5333781411388893 0.0
4.117274722147235 0.5935234705584039 0.0
4.065082560620447 0.6351453303044018 0.0
3.934917439190226 0.6351453302132268 0.0
3.882725277520537 0.5935234701418048 0.0
3.853760813071839 0.5333781396514286 0.0
3.853760813263242 0.4666218595099774 0.0
3.882725277782338 0.4064765295299076 0.0
3.934917439246251 0.3648546697597932 0.0
3.348071016817302 0.5037366844559412 0.0
4.65817771841185 0.4813089492125461 0.0
5.148432135339639 0.5000000000000013 0.0
2.851567863014233 0.5000000000000465 0.0
4.406326506211093 0.3072680842959042 0.0
3.575604791543614 0.6706702532911111 0.0
4.424395205595821 0.6706702556565258 0.0
3.593673497058965 0.3072680820819204 0.0
5.648652107845511 0.5000000000000006 0.0
2.351347890458042 0.4999999999998563 0.0
1.851146954963573 0.4999999999998219 0.0
6.148853043290459 0.4999999999999989 0.0
6.65089532386231 0.5241211434250735 0.0
1.349104674975677 0.4758788558671475 0.0
7.150713697794147 0.4858064203922342 0.0
0.8492863006035025 0.4858064203396458 0.0
4.216343713145164 0.2287135668575249 0.0
3.7836562881134 0.7712864338025908 0.0
4.346988371127422 0.5000000019594898 0.0
4.213775907987267 0.7756803165215952 0.0
3.653011628408684 0.4999999990051173 0.0
3.786224091202296 0.224319683220954 0.0
7.572712389010231 0.5763628491757339 0.0
0.4272876103144935 0.5763628498169726 0.0
4.881741322202974 0.3185523670790996 0.0
3.118258676783759 0.6814476337404539 0.0
3.126854924363118 0.2792890251323842 0.0
4.873145074373641 0.7207109754187309 0.0
5.398381996912613 0.291094588046412 0.0
5.396092528392672 0.7230702977293901 0.0
2.603907471650227 0.7230702981371074 0.0
2.601618001742297 0.2910945873520305 0.0
4.065645388412852 0.1903894420877926 0.0
3.934354612281609 0.8096105573695707 0.0
4.268393145079946 0.6292513280674802 0.0
3.731606853978594 0.3707486723017213 0.0
4.265062587797852 0.3723525870906427 0.0
3.734937412407246 0.6276474138958879 0.0
5.89991820844496 0.720584760457478 0.0
5.899661142431216 0.2940789491313893 0.0
2.100338856207466 0.7059210507243335 0.0
2.100081790085733 0.2794152396968363 0.0
4.648216390708278 0.2460745758417431 0.0
3.350865525112209 0.7519279174007294 0.0
3.351783614314077 0.2460745727859678 0.0
4.649134469923633 0.7519279206208029 0.0
6.386000070083336 0.2800687217561524 0.0
6.399946740387701 0.7091877900019353 0.0
1.613999929083956 0.7199312783619409 0.0
1.600053258667474 0.2908122092889953 0.0
1.099018086220021 0.3101534564461602 0.0
1.099018086220183 0.6898465435530818 0.0
6.900981912171285 0.3101534566801202 0.0
6.900981912171287 0.689846543319878 0.0
3.934891793257755 0.2336799984692873 0.0
4.065108206439434 0.7663200008196746 0.0
5.133077706310633 0.254681732561614 0.0
5.131620328745691 0.7509194919064351 0.0
2.866922291796803 0.7453182673725732 0.0
2.868379670398546 0.2490805081265555 0.0
0.5973224633027379 0.3123440263675117 0.0
7.402677535116692 0.3123440263206204 0.0
7.70928508668797 0.2984218335093966 0.0
0.2907149122204558 0.2984218350042115 0.0
2.359042531710287 0.2526358364218651 0.0
2.362552667743482 0.7498876177132479 0.0
5.640957467742433 0.2526358368965552 0.0
5.637447332034727 0.7498876177447886 0.0
7.330771635020911 0.7204300868765696 0.0
0.6692283641678903 0.7204300870263377 0.0
6.141991504218947 0.7500064293114952 0.0
6.143214654121697 0.2541610692540839 0.0
1.858008494097047 0.2499935706645152 0.0
1.856785344746094 0.7458389307817799 0.0
1.360037479834015 0.7503851535261052 0.0
1.363297687800482 0.2332108063209677 0.0
6.636702311691573 0.7667891933666813 0.0
6.639962519949044 0.2496148464378299 0.0
7.14328150074831 0.2292696686424185 0.0
0.8567184978980538 0.2292696684503961 0.0
4.845173759433459 0.5000000012080886 0.0
3.15482623877425 0.4999999993865263 0.0
3.514470413944982 0.5755907957035395 0.0
4.485529584365944 0.5755907996488695 0.0
4.350214515329574 0.8947484376274254 0.0
3.64978548377064 0.1052515623441257 0.0
4.356280753270322 0.1397878825788729 0.0
3.643719248073251 0.8602121180766233 0.0
4.157657982820168 0.3023031440803671 0.0
3.842342017851872 0.6976968563131654 0.0
4.149794964153143 0.6947625877680722 0.0
3.850205035403508 0.3052374120341299 0.0
4.252863769441745 0.5000000013253333 0.0
3.747136230269581 0.4999999993774377 0.0
2.66150837620265 0.4835883053501762 0.0
5.338491622258749 0.4835883052760253 0.0
7.732076714471282 0.7613785341653052 0.0
0.267923285219987 0.7613785345749642 0.0
3.482582425594127 0.3988584940714734 0.0
4.517417574829351 0.3988584973195787 0.0
7.120961454429095 0.7969630876933931 0.0
0.8790385446795201 0.7969630878928393 0.0
4.524178509919695 0.1937066442020419 0.0
3.472973035782958 0.803602443762734 0.0
4.527026959328886 0.8036024455277256 0.0
3.475821495314308 0.1937066425220846 0.0
5.834485749168302 0.4775259269822466 0.0
2.16551424934095 0.5224740729963462 0.0
4.803832126993392 0.8343163881584211 0.0
3.196167871756218 0.1656836120733276 0.0
3.196167870279283 0.834316388182051 0.0
4.803832130306974 0.1656836112805605 0.0
1.646902821176459 0.5088844228822333 0.0
6.35309717778631 0.4911155766888507 0.0
4.128745436683365 0.8608937921704661 0.0
3.871254562700506 0.1391062074145501 0.0
7.783519314041498 0.4824599318584197 0.0
0.2164806854160975 0.4824599323519634 0.0
3.981228286637499 0.1341601386487245 0.0
4.018771713398118 0.8658398609794804 0.0
4.757705393330306 0.6277793253200102 0.0
3.245404476813698 0.3720431195654205 0.0
3.262406961538709 0.609092082228193 0.0
4.738552632749474 0.3854106153034425 0.0
4.980576921401999 0.1828043249223437 0.0
3.019423077460087 0.8171956749482756 0.0
4.975386875116307 0.8288560892267683 0.0
3.024613123995747 0.1711439108946455 0.0
7.537862127958827 0.7914398748884439 0.0
0.46213787149577 0.7914398749623154 0.0
4.150965283491015 0.1232311208167031 0.0
3.849034718225983 0.8767688792466098 0.0
0.6330166515036239 0.5212993800799176 0.0
7.366983347335347 0.5212993798709434 0.0
5.001451172914062 0.4591396125040952 0.0
2.998548825585332 0.5408603877155073 0.0
5.250532135494552 0.1623854812497458 0.0
5.24999687257574 0.8404382486850067 0.0
2.749794930508214 0.8396380739052673 0.0
2.749676059914328 0.161585306286623 0.0
1.150631951549359 0.5017906253149568 0.0
6.85747267660715 0.5137706215776152 0.0
2.938770240933895 0.3859183074771494 0.0
5.061229757952985 0.6140816927005173 0.0
5.521883200863776 0.8371838481144578 0.0
5.520780843451154 0.1567733764659754 0.0
2.479219155991939 0.1567733759623464 0.0
2.478116798894765 0.8371838481096507 0.0
2.208224060227917 0.1725929992863016 0.0
2.214655190115911 0.821187355218689 0.0
5.791775938918927 0.8274070011383262 0.0
5.785558009721889 0.1789659155514431 0.0
5.243140500145841 0.3651007420679131 0.0
5.247758683472709 0.6318228659349833 0.0
2.748336099792684 0.6332079670712092 0.0
2.766145970608876 0.3583112578457802 0.0
2.500794992947401 0.4517155340697119 0.0
5.499205006433885 0.4517155344186723 0.0
3.472119223331378 0.69283875816516 0.0
4.527880773131323 0.6928387614752662 0.0
2.445947440949104 0.6396216022327238 0.0
5.554052558509333 0.6396216019605415 0.0
1.976669571201813 0.1631348676957265 0.0
[...]
POINT_DATA 494

VECTORS Velocity float
0.0000000000000000 0.0000000000000000 0.0
0.8198785419026748 -0.1381156196855373 0.0
0.0000000000000000 0.0000000000000000 0.0
0.0000000000000000 0.0000000000000000 0.0
0.0000000000000000 0.0000000000000000 0.0
0.0000000000000000 0.0000000000000000 0.0
0.0000000000000000 0.0000000000000000 0.0
0.0000000000000000 0.0000000000000000 0.0
0.0000000000000000 0.0000000000000000 0.0
0.0000000000000000 0.0000000000000000 0.0
0.0000000000000000 0.0000000000000000 0.0
0.0000000000000000 0.0000000000000000 0.0
0.0000000000000000 0.0000000000000000 0.0
0.0000000000000000 0.0000000000000000 0.0
0.0000000000000000 0.0000000000000000 0.0
0.0000000000000000 0.0000000000000000 0.0
0.0000000000000000 0.0000000000000000 0.0
0.0000000000000000 0.0000000000000000 0.0
0.0000000000000000 0.0000000000000000 0.0
0.0000000000000000 0.0000000000000000 0.0
0.0000000000000000 0.0000000000000000 0.0
0.0000000000000000 0.0000000000000000 0.0
0.0000000000000000 0.0000000000000000 0.0
0.0000000000000000 0.0000000000000000 0.0
0.0000000000000000 0.0000000000000000 0.0
0.0000000000000000 0.0000000000000000 0.0
0.0000000000000000 0.0000000000000000 0.0
0.0000000000000000 0.0000000000000000 0.0
0.0000000000000000 0.0000000000000000 0.0
0.0000000000000000 0.0000000000000000 0.0
0.0000000000000000 0.0000000000000000 0.0
0.0000000000000000 0.0000000000000000 0.0
0.0000000000000000 0.0000000000000000 0.0
0.0000000000000000 0.0000000000000000 0.0
0.0000000000000000 0.0000000000000000 0.0
0.0000000000000000 0.0000000000000000 0.0
0.0000000000000000 0.0000000000000000 0.0
0.0000000000000000 0.0000000000000000 0.0
0.0000000000000000 0.0000000000000000 0.0
0.0000000000000000 0.0000000000000000 0.0
0.0000000000000000 0.0000000000000000 0.0
0.0000000000000000 0.0000000000000000 0.0
0.0000000000000000 0.0000000000000000 0.0
0.0000000000000000 0.0000000000000000 0.0
0.0000000000000000 0.0000000000000000 0.0
0.0000000000000000 0.0000000000000000 0.0
0.0000000000000000 0.0000000000000000 0.0
0.0000000000000000 0.0000000000000000 0.0
0.0000000000000000 0.0000000000000000 0.0
0.0000000000000000 0.0000000000000000 0.0
0.0000000000000000 0.0000000000000000 0.0
0.0000000000000000 0.0000000000000000 0.0
0.0000000000000000 0.0000000000000000 0.0
0.0000000000000000 0.0000000000000000 0.0
1.0771212823497962 0.5439880743558305 0.0
0.9956092084825710 0.1370943888649134 0.0
0.9602648157014695 -0.0885155242403361 0.0
1.0633926618613592 -0.4541687443565117 0.0
0.0000000000000000 0.0000000000000000 0.0
0.0000000000000000 0.0000000000000000 0.0
0.0000000000000000 0.0000000000000000 0.0
0.0000000000000000 0.0000000000000000 0.0
0.0000000000000000 0.0000000000000000 0.0
0.0000000000000000 0.0000000000000000 0.0
0.0000000000000000 0.0000000000000000 0.0
0.0000000000000000 0.0000000000000000 0.0
0.0000000000000000 0.0000000000000000 0.0
0.0000000000000000 0.0000000000000000 0.0
0.0000000000000000 0.0000000000000000 0.0
0.0000000000000000 0.0000000000000000 0.0
0.0000000000000000 0.0000000000000000 0.0
0.0000000000000000 0.0000000000000000 0.0
0.0000000000000000 0.0000000000000000 0.0
0.0000000000000000 0.0000000000000000 0.0
0.0000000000000000 0.0000000000000000 0.0
0.0000000000000000 0.0000000000000000 0.0
0.0000000000000000 0.0000000000000000 0.0
0.0000000000000000 0.0000000000000000 0.0
0.0000000000000000 0.0000000000000000 0.0
0.0000000000000000 0.0000000000000000 0.0
0.0000000000000000 0.0000000000000000 0.0
0.0000000000000000 0.0000000000000000 0.0
0.0000000000000000 0.0000000000000000 0.0
0.0000000000000000 0.0000000000000000 0.0
0.0000000000000000 0.0000000000000000 0.0
0.0000000000000000 0.0000000000000000 0.0
0.0000000000000000 0.0000000000000000 0.0
0.0000000000000000 0.0000000000000000 0.0
0.0000000000000000 0.0000000000000000 0.0
0.0000000000000000 0.0000000000000000 0.0
0.0000000000000000 0.0000000000000000 0.0
0.0000000000000000 0.0000000000000000 0.0
0.0000000000000000 0.0000000000000000 0.0
0.0000000000000000 0.0000000000000000 0.0
0.0000000000000000 0.0000000000000000 0.0
0.0000000000000000 0.0000000000000000 0.0
0.0000000000000000 0.0000000000000000 0.0
0.0000000000000000 0.0000000000000000 0.0
0.0000000000000000 0.0000000000000000 0.0
0.0000000000000000 0.0000000000000000 0.0
0.0000000000000000 0.0000000000000000 0.0
0.0000000000000000 0.0000000000000000 0.0
0.0000000000000000 0.0000000000000000 0.0
0.0000000000000000 0.0000000000000000 0.0
1.0000000000000000 0.0000000000000000 0.0
1.0000000000000000 0.0000000000000000 0.0
1.0000000000000000 0.0000000000000000 0.0
1.0000000000000000 0.0000000000000000 0.0
0.0000000000000000 0.0000000000000000 0.0
0.0000000000000000 0.0000000000000000 0.0
0.0000000000000000 0.0000000000000000 0.0
0.0000000000000000 0.0000000000000000 0.0
0.0000000000000000 0.0000000000000000 0.0
0.0000000000000000 0.0000000000000000 0.0
0.0000000000000000 0.0000000000000000 0.0
0.0000000000000000 0.0000000000000000 0.0
0.0000000000000000 0.0000000000000000 0.0
0.0000000000000000 0.0000000000000000 0.0
0.0000000000000000 0.0000000000000000 0.0
0.0000000000000000 0.0000000000000000 0.0
1.5807920661807975 -0.0092225094832924 0.0
1.5835593041238976 0.0150210285093759 0.0
1.6328598979380149 -0.0112407009036651 0.0
1.6300156797232852 -0.0191131565092052 0.0
1.3483359082020527 0.0768253346547439 0.0
1.3695341903352967 0.0609430996847548 0.0
1.4074833839288887 -0.1073548884428800 0.0
1.3869792560757364 -0.1269727723684124 0.0
1.6093880742934226 0.0011775419862361 0.0
1.6087850110697330 -0.0062736416571863 0.0
1.5565824542156461 0.0049566330038502 0.0
1.5556035264162926 -0.0007392369381163 0.0
1.5722334489836487 -0.0316833364540021 0.0
1.5722637163342332 0.0161642003406526 0.0
1.6552217047354536 0.0092615368095636 0.0
1.6518675455860081 -0.0164680254168404 0.0
1.3232832777255588 0.3119561022791591 0.0
1.3226366544823944 0.3060757670690159 0.0
1.3468816674634045 0.0222021480878353 0.0
1.3580801909269340 -0.2269882880724182 0.0
1.3463496158575283 0.0169340474106129 0.0
1.3583403738287558 -0.2307991140300065 0.0
1.5491559352040822 0.0146654906602999 0.0
1.5326604476930048 -0.0345294593006506 0.0
1.3403741023207236 0.0078031054113584 0.0
1.3413915717396470 0.0070932542131639 0.0
1.2676530905796828 -0.0015804668136779 0.0
1.2589717993322840 -0.0029022800386935 0.0
1.3050270654646123 -0.0059348322928818 0.0
1.2126090025822893 -0.0146749330156243 0.0
1.1846749592440586 0.0085425151540731 0.0
1.3257243405623589 0.0028003141521409 0.0
1.4606447638436828 0.1350154891347880 0.0
1.4610456069601858 0.1329470908805137 0.0
1.4282297827365418 -0.2682945003298153 0.0
1.4338222586735092 -0.2720946984480728 0.0
1.4406442690899144 0.3469299415965426 0.0
1.4353597471421395 0.3456033035531969 0.0
1.1820752711281326 -0.0290148947289769 0.0
1.3017297155260690 -0.0073441219399537 0.0
1.2928780465997309 -0.0157222875050929 0.0
1.1869171964667082 -0.0306471905066920 0.0
1.0856257461090841 -0.0610669891075346 0.0
1.0899353195636767 -0.0512982360250462 0.0
1.1032003062585110 0.0372809734434542 0.0
1.1108465600682511 0.0234725625918023 0.0
1.2548933134001619 0.0048158424915651 0.0
1.2409179506205354 -0.0200350211608809 0.0
1.2442347536479450 0.0180235750704599 0.0
1.2505541086286831 -0.0029813288188044 0.0
1.4399809026537780 -0.0302516258895768 0.0
1.3211077997914653 0.0534577091192433 0.0
1.4446050884383559 0.0330634215981995 0.0
1.3133286472785854 -0.0471557366893743 0.0
1.5791872157157449 -0.2256254809543862 0.0
1.5787703621984102 -0.2251511930411573 0.0
1.1581354304693463 -0.0524598139594400 0.0
1.1818779668671582 0.0564865745611049 0.0
1.1459224788822198 -0.0567313569451173 0.0
1.1902049450278069 0.0441781273242307 0.0
1.4292929481895007 0.0318325208552427 0.0
1.4397171188753390 -0.0293183565281318 0.0
1.2947507149725150 -0.1606161713142330 0.0
1.2812033736142017 0.1933364903646254 0.0
1.1908740446437001 0.0508714443403002 0.0
1.1405609504544818 -0.0045268470353935 0.0
1.1871748581855028 -0.0374218826674668 0.0
1.1555446720852685 0.0311838100402411 0.0
1.2892963751571069 0.0084940563177092 0.0
1.2960406043112935 -0.0146199427639371 0.0
1.1574747218332024 0.0377614975604084 0.0
1.2183045833718757 -0.0662061323154214 0.0
1.1603442303066693 0.0407016794527651 0.0
1.2150603536763587 -0.0647944290880185 0.0
1.1701741501176164 0.0693040653457681 0.0
1.1448599921787070 -0.0399270769351957 0.0
1.1010984021009216 -0.0579864349947213 0.0
1.2048579877958343 0.0510896771984115 0.0
1.1034624051187940 -0.0235713614503268 0.0
1.0976086509077407 0.0191380914534422 0.0
1.6018425401130358 0.0093932939013806 0.0
1.6036851836172503 -0.0000434037864040 0.0
1.4727633314825768 0.0346383651985919 0.0
1.4893596131100642 -0.0675101410406939 0.0
0.4817230569553167 -0.0125630989480380 0.0
0.4643800401884036 -0.0142199219046189 0.0
0.5796283996629255 0.1055644709360349 0.0
0.5983675617689261 0.1048986130376946 0.0
1.4636257534204284 0.4407264609821656 0.0
1.4589611683248958 0.4377063718096155 0.0
1.5419955897805171 -0.3533065893762675 0.0
1.5440196473492751 -0.3542777951937530 0.0
0.9833112504285324 0.0306885609131606 0.0
0.9838825162264475 0.0418878985362881 0.0
1.6098540942978676 0.0307863658633168 0.0
1.6024828244987788 -0.0426959774835300 0.0
1.1591617276592561 0.1959304368705853 0.0
1.1963091836608011 -0.2745154504776305 0.0
1.5115815990226213 -0.0538854400801258 0.0
1.4901438815282613 0.0146497152600264 0.0
0.7373176068903357 -0.0073022608052846 0.0
0.7587040295849153 0.0059484502173380 0.0
0.9099265650559867 -0.0165691364356146 0.0
0.9238433666691777 -0.0195943150553927 0.0
0.9389526273577919 0.0037721918678742 0.0
0.9277969309417808 0.0035405261894927 0.0
1.5763116813423261 -0.0257300026352476 0.0
1.5760915949795085 -0.0535996701940861 0.0
0.6704901933738131 -0.0853457745623748 0.0
0.6697982245874475 -0.0864372481353207 0.0
0.7170692144640535 0.0661715089820318 0.0
0.7167570900100152 0.0651098316327220 0.0
1.4955004739086730 0.0471086803729021 0.0
1.4959889669797350 0.0323556284360605 0.0
0.9015143157388467 -0.1220808388271485 0.0
0.9022000807783687 -0.1251109120343158 0.0
1.3576165278136065 0.0006744851059002 0.0
1.2764331282522896 0.0143307771291875 0.0
1.0034514532783985 -0.0934319165364389 0.0
1.0038680561322380 -0.0933231939854352 0.0
1.5103653144216600 -0.0306834217288709 0.0
1.5162799533067222 -0.0336438641535088 0.0
1.4777130752753966 0.0421978963161667 0.0
1.4819113845559093 0.0491380863042164 0.0
0.7545504227195732 -0.0066309962431679 0.0
0.7574090533372665 -0.0056943627321479 0.0
0.7085913526175566 0.0201095668989127 0.0
0.6987874450257987 0.0174929186117585 0.0
0.8172920289656345 0.0370587646638960 0.0
0.8404231566183680 -0.0647001868299480 0.0
0.7476221351927430 0.0883430374744246 0.0
0.7502064272454196 0.0855387734252065 0.0
1.5777785420244932 -0.0110143163105821 0.0
1.5877946628826756 0.0058968441830351 0.0
1.5867826342900051 -0.0077108638950982 0.0
1.5875255936464561 -0.0080045251280043 0.0
0.7037008095278142 -0.0026791745820066 0.0
0.7277407232210393 0.0257365608842753 0.0
0.7087541403042125 -0.0127838507454518 0.0
0.7059323564837684 0.0178911563888085 0.0
1.6259192911725371 -0.0013730918081334 0.0
1.6292216700976672 -0.0448057738136546 0.0
1.5171798329957711 -0.0138615099480023 0.0
1.5182437418743446 -0.0156703146356303 0.0
0.7158531484361687 -0.0104853187932769 0.0
0.6390979930617187 0.0177462356202607 0.0
0.6510545536550009 -0.0194554842718820 0.0
0.6982436810530904 0.0089143424572766 0.0
0.8060789147545135 0.0306676677452178 0.0
0.7796065673788536 -0.0213393422632393 0.0
0.8104626822869405 0.0210622359282594 0.0
0.7935938398065809 -0.0271900872912370 0.0
1.4131451856253197 -0.0086332221748182 0.0
1.4371721664208748 0.0006134255657316 0.0
1.4165687363778694 -0.0014480458821384 0.0
1.4369450501803056 0.0054214209565098 0.0
1.5770525206629564 0.0023173920288348 0.0
1.5657814529078620 -0.0104344296678686 0.0
1.3146330463134110 0.0095229885090012 0.0
1.3565669202309369 -0.0298389601157817 0.0
1.4089066349657378 0.0035125661090950 0.0
1.4160748548003914 -0.0131552977093724 0.0
0.7228312451478077 -0.0170420568300099 0.0
0.6698865704391551 0.0192448840458550 0.0
0.7240353034587058 -0.0185252764975207 0.0
0.6717131415832600 0.0205930662417794 0.0
0.5621208895028597 -0.1155227945516304 0.0
0.5660568712407359 -0.1104493417648589 0.0
1.2866117788978928 0.1171705826221335 0.0
1.2857340362027543 0.1148900665162655 0.0
1.4208108285264935 -0.0144561603896718 0.0
1.3831903246689616 -0.0387609728240242 0.0
1.3871477804799033 0.0225821705116272 0.0
1.4219157252405132 -0.0024673088924198 0.0
0.7984514466460737 -0.0651012275527782 0.0
0.7981020881480279 0.0748310523280534 0.0
1.1176427499368076 -0.1523082462768358 0.0
1.1179950328845671 -0.1480944066574571 0.0
1.1226355881206935 0.2155030704196805 0.0
1.1180177775659819 0.2171365673045507 0.0
0.8463867083339768 -0.0427198202826566 0.0
0.8078060842800397 0.0490401238920626 0.0
0.8419133828592936 -0.0386405573744589 0.0
0.8135081965959861 0.0549983878973605 0.0
1.5529565911061773 -0.0100568240534280 0.0
1.5532257665885068 -0.0188633579842102 0.0
0.6850103102120201 -0.0209146585448269 0.0
0.7038370849630662 0.0036517248106384 0.0
0.6476607203190342 0.0247654066776062 0.0
0.7314613693881001 0.0421056832723781 0.0
0.6611471704685891 0.0017606052356633 0.0
0.6658721120581402 -0.0022814529933199 0.0
1.4097137296104005 -0.2034070256695414 0.0
1.4064634611446272 -0.1957686718528944 0.0
1.2749639515077880 0.2550633177001046 0.0
1.2752559711118463 0.2394209093210484 0.0
0.4857940225473678 -0.0513294064341525 0.0
0.4932441996175793 -0.0506201883411326 0.0
0.4926358613052358 0.0522501639851379 0.0
0.5002575054528754 0.0505249013163971 0.0
1.4018235986033800 -0.0059586756580542 0.0
1.4049919381940561 -0.0031831543608404 0.0
1.4144117830987306 -0.1551168005607935 0.0
1.4285753839175759 -0.1537127607712105 0.0
1.4382707219237807 0.1698192203072347 0.0
1.4200703592302490 0.1669846824257289 0.0
0.8525223142004126 0.0396435138620832 0.0
0.7449877158466565 -0.1086515340314881 0.0
0.8388864781875007 0.0507277387638716 0.0
0.7629104688308073 -0.0927759849273547 0.0
1.3965444923927721 -0.0446118599257451 0.0
1.3695412683751882 0.0513042101916300 0.0
1.3917501717932208 -0.0379371870143187 0.0
1.3728234238773747 0.0590524189088934 0.0
1.5097352459667390 -0.0000389980188474 0.0
1.5083917766072128 -0.0303840041406896 0.0
0.6470187103887347 0.0018776417907211 0.0
0.6498248349554685 0.0047111472592381 0.0
1.3901045155068350 0.0787976354286134 0.0
1.4021304203098743 0.0531942319532364 0.0
1.5193409458638802 -0.0417008729491666 0.0
1.4952131639523845 0.0455255284814292 0.0
0.7050284791358100 0.0892671870208756 0.0
0.6925831647308588 0.0966575112155879 0.0
1.4620361476814394 -0.0287247018707005 0.0
1.4144974332657485 0.0355273014445705 0.0
1.4141537091374898 -0.0497744217117733 0.0
1.4615795709583717 0.0042050474842625 0.0
1.6326357091022872 0.0185459504898402 0.0
1.6460333676533472 -0.0255999075219783 0.0
0.5036212122538276 0.0003146248328369 0.0
0.5017705395927945 0.0017242171511534 0.0
1.5284547927088781 -0.0311749804455498 0.0
1.5256519208604489 0.0307756670390259 0.0
0.9374321775665140 0.2269498188111444 0.0
0.9057581830011020 -0.2233050949801018 0.0
1.4892072563713468 -0.0151695681462600 0.0
1.4877059570182947 -0.0046949403976951 0.0
1.3136746813539104 0.0065899174997786 0.0
1.3552362986466566 -0.0308910554780243 0.0
1.3235270441893989 -0.0154481458951388 0.0
1.3275058301869564 -0.0151121983509067 0.0
1.2048754622381219 -0.1179850902071553 0.0
1.2049259177697562 -0.1180943916779739 0.0
1.4846417160682785 -0.0189100640898191 0.0
1.4364586924325682 0.0026043181246362 0.0
1.4525247992051229 -0.0303546714003464 0.0
1.4411458519673432 0.0316270824720220 0.0
1.4920560220658208 -0.0242100053874594 0.0
1.4427216741906292 0.0078781074610498 0.0
0.4309517897529005 0.0483156439922346 0.0
0.4335342506267728 0.0448124086497354 0.0
0.4264900325129407 -0.0320218319003583 0.0
0.4195044793186182 -0.0354532373146311 0.0
1.4356934153717207 -0.3252637972651103 0.0
1.4368919503291722 -0.3279799002251577 0.0
0.3969917501998366 0.0066877099867152 0.0
0.4058696415351098 -0.0108782230522978 0.0
1.5127977279586062 0.3225223201088138 0.0
1.5141306884276127 0.3173794114947820 0.0
0.5923381623815933 0.0983112449683528 0.0
0.5932143060238122 0.0972249372275172 0.0
1.5178201844681034 0.0233996334115411 0.0
1.5210461290447257 -0.0225449696729341 0.0
1.3282100135439605 -0.0150430852553583 0.0
1.3412573540010280 0.0144389037026214 0.0
1.4570336721257575 -0.3667812179920343 0.0
1.4529086307090633 -0.3638357423430623 0.0
1.3975769054098215 0.4762928778848157 0.0
1.4071481181397043 0.4728829186077553 0.0
1.5838364984291347 0.0080282228229684 0.0
1.5820480275924178 0.0080876225861990 0.0
0.4861839365308838 0.0547243724466682 0.0
0.4651796253489348 -0.0606223359831507 0.0
0.4792919762737132 0.0586457679022143 0.0
0.4749628914840811 -0.0570162059681489 0.0
0.3927607302873081 0.0276378873853430 0.0
0.4135060822123499 0.0278307084960151 0.0
0.4289573425152983 -0.0150411072704119 0.0
0.4503252132606700 -0.0163757893577642 0.0
1.2348488883011102 -0.2001607025087122 0.0
1.2515597598841559 -0.2008094548645712 0.0
1.2646328345931914 0.2713458387028268 0.0
1.2487783886084582 0.2710050490632358 0.0
1.2070771764551194 -0.2720404699602341 0.0
1.1809226957266563 0.2659157166538449 0.0
1.4499360292638384 0.0039729669128744 0.0
1.4567040491081789 0.0155340588817889 0.0
0.5102524164185057 -0.0091713152534522 0.0
0.4855080628455154 -0.0005156305018144 0.0
0.5201035512529628 0.0141436230419261 0.0
0.4985940880404579 0.0043730643410592 0.0
1.4850666428336441 -0.0201792134642415 0.0
1.4732801069698915 0.0052242434948479 0.0
1.3331704026192168 -0.0255435384169485 0.0
1.3344291251197273 -0.0232547287396234 0.0
0.8722101569878169 0.2642837521008022 0.0
0.9351864938709777 -0.2433714035462925 0.0
1.0448848439472269 0.0784620779032959 0.0
1.0503166019585268 0.0841174071258132 0.0
1.0633337499967748 -0.1021123133864029 0.0
1.0628444420957877 -0.1040436633559393 0.0
0.6352188245544735 -0.1340728744203108 0.0
0.6496607975069155 0.1422157940366763 0.0
0.2890406246782630 -0.0251869893044481 0.0
0.2917931933665087 -0.0243069508129075 0.0
0.2979546657419042 -0.0098092347921350 0.0
0.2970126047170172 -0.0096618973104191 0.0
0.3564065210742474 -0.0116684228736257 0.0
0.3562602152762484 0.0118289864577317 0.0
1.2242994444649775 0.3281221468522978 0.0
1.1734613861421950 -0.2644949833562992 0.0
0.5060058299665841 -0.0602220602729558 0.0
0.4951682263476430 0.0721095578178893 0.0
0.5049478193557414 -0.0594307063008925 0.0
0.4965863678410267 0.0738836092337546 0.0
1.4848359209614019 0.0483141777656667 0.0
1.4953217167979500 -0.0612854635452086 0.0
0.4522954911435859 0.0758190810878592 0.0
0.5225116364992732 -0.1242924125824736 0.0
0.9590590243916458 0.0596214955325700 0.0
0.9554036932165665 0.0580337197896854 0.0
0.9816777409637931 -0.0563754090847515 0.0
0.9822737404503264 -0.0562570639351479 0.0
0.8747196148195491 0.0275726692745481 0.0
0.8751789580676851 0.0371432360530541 0.0
0.5330803774309800 0.0443899644895677 0.0
0.5082947540735301 -0.0576207640736535 0.0
0.5302806852051822 0.0430987009513016 0.0
0.5071151670015609 -0.0577572576273317 0.0
1.5429124213282051 -0.0059454251341608 0.0
1.5396434603633564 -0.0030265987699063 0.0
0.4254007216362181 -0.0722626426234029 0.0
0.4742138649886160 0.0498368407267727 0.0
0.4595816344193140 0.0610722449007448 0.0
0.4444735014786448 -0.0608405712167224 0.0
1.0239131047963146 0.0365915884027860 0.0
1.0580789094632588 0.0392660257979420 0.0
1.0884552881620315 -0.0542251023024236 0.0
1.0652608456257109 -0.0572870415143634 0.0
1.3133311521920963 0.0164100645284918 0.0
1.3103625908098275 0.0244930948663845 0.0
1.3551947027585385 -0.0670664350215954 0.0
1.3683617279268356 -0.0404353264311817 0.0
1.0672199887502090 -0.1188767807586082 0.0
1.0632528136997179 -0.1248359928559102 0.0
0.5291401615742707 -0.0017707761269682 0.0
0.5302475625618582 0.0076782416747058 0.0
0.5361902421743610 0.0042204348720183 0.0
0.5210816544458248 -0.0060715084530314 0.0