# vtk DataFile Version 3.0
LucasCarvalhoTCC Results
ASCII

DATASET POLYDATA
FIELD FieldData 1
TIME 1 1 double
1.1

POINTS 494 float
0.0 0.0 0.0
8.0 0.0 0.0
8.0 1.0 0.0
0.0 1.0 0.0
4.0 0.0 0.0
4.0 1.0 0.0
4.0 0.35 0.0
4.0 0.65 0.0
0.2010296266416496 1.0 0.0
0.3986915135488555 1.0 0.0
0.5930420631591132 1.0 0.0
0.7841367769318693 1.0 0.0
0.9720301907499852 1.0 0.0
1.156775924166146 1.0 0.0
1.33842670621592 1.0 0.0
1.517034389070868 1.0 0.0
1.69264994674003 1.0 0.0
1.865323550794866 1.0 0.0
2.035104414722059 1.0 0.0
2.202040983487818 1.0 0.0
2.366180993436638 1.0 0.0
2.527571282866703 1.0 0.0
2.686257831390245 1.0 0.0
2.842286022819771 1.0 0.0
2.995700353514032 1.0 0.0
3.146544637914273 1.0 0.0
3.294861880721452 1.0 0.0
3.440694398353104 1.0 0.0
3.58408394609007 1.0 0.0
3.725071294102791 1.0 0.0
3.863696788294668 1.0 0.0
4.136303211705004 1.0 0.0
4.274928705896546 1.0 0.0
4.415916053908917 1.0 0.0
4.55930560164552 1.0 0.0
4.7051381192768 1.0 0.0
4.853455362083593 1.0 0.0
5.004299646483437 1.0 0.0
5.157713977177285 1.0 0.0
5.313742168606385 1.0 0.0
5.472428717129489 1.0 0.0
5.6338190065591 1.0 0.0
5.797959016507455 1.0 0.0
5.96489558527273 1.0 0.0
6.134676449200184 1.0 0.0
6.307350053255487 1.0 0.0
6.482965610925135 1.0 0.0
6.661573293780584 1.0 0.0
6.843224075830887 1.0 0.0
7.027969809247587 1.0 0.0
7.215863223066262 1.0 0.0
7.4069579368396 1.0 0.0
7.601308486450315 1.0 0.0
7.798970373357896 1.0 0.0
8.0 0.7999999999999996 0.0
8.0 0.6000000000013874 0.0
8.0 0.4000000000016649 0.0
8.0 0.2000000000008324 0.0
7.798970373357898 0.0 0.0
7.601308486450317 0.0 0.0
7.406957936839601 0.0 0.0
7.215863223066265 0.0 0.0
7.02796980924759 0.0 0.0
6.843224075830888 0.0 0.0
6.661573293780592 0.0 0.0
6.482965610925139 0.0 0.0
6.307350053255492 0.0 0.0
6.134676449200188 0.0 0.0
5.964895585272735 0.0 0.0
5.797959016507459 0.0 0.0
5.633819006559103 0.0 0.0
5.472428717129493 0.0 0.0
5.313742168606389 0.0 0.0
5.157713977177288 0.0 0.0
5.004299646483441 0.0 0.0
4.853455362083597 0.0 0.0
4.705138119276803 0.0 0.0
4.559305601645523 0.0 0.0
4.415916053908919 0.0 0.0
4.274928705896549 0.0 0.0
4.136303211705007 0.0 0.0
3.863696788294383 0.0 0.0
3.725071294102209 0.0 0.0
3.584083946089184 0.0 0.0
3.440694398352564 0.0 0.0
3.29486188072223 0.0 0.0
3.146544637916415 0.0 0.0
2.995700353517581 0.0 0.0
2.842286022824779 0.0 0.0
2.68625783139676 0.0 0.0
2.527571282874774 0.0 0.0
2.366180993446318 0.0 0.0
2.202040983499156 0.0 0.0
2.035104414735112 0.0 0.0
1.865323550807426 0.0 0.0
1.692649946751479 0.0 0.0
1.517034389081164 0.0 0.0
1.338426706225015 0.0 0.0
1.156775924174005 0.0 0.0
0.9720301907565596 0.0 0.0
0.784136776937109 0.0 0.0
0.5930420631629705 0.0 0.0
0.3986915135514271 0.0 0.0
0.2010296266429896 0.0 0.0
0.0 0.199999999999558 0.0
0.0 0.3999999999989746 0.0
0.0 0.5999999999989464 0.0
0.0 0.7999999999994731 0.0
4.065082561150232 0.3648546699507293 0.0
4.117274722996153 0.4064765305061043 0.0
4.146239186965635 0.4666218605127571 0.0
4.146239186588658 0.5333781411388893 0.0
4.117274722147235 0.5935234705584039 0.0
4.065082560620447 0.6351453303044018 0.0
3.934917439190226 0.6351453302132268 0.0
3.882725277520537 0.5935234701418048 0.0
3.853760813071839 0.5333781396514286 0.0
3.853760813263242 0.4666218595099774 0.0
3.882725277782338 0.4064765295299076 0.0
3.934917439246251 0.3648546697597932 0.0
3.348071016817302 0.5037366844559412 0.0
4.65817771841185 0.4813089492125461 0.0
5.148432135339639 0.5000000000000013 0.0
2.851567863014233 0.5000000000000465 0.0
4.406326506211093 0.3072680842959042 0.0
3.575604791543614 0.6706702532911111 0.0
4.424395205595821 0.6706702556565258 0.0
3.593673497058965 0.3072680820819204 0.0
5.648652107845511 0.5000000000000006 0.0
2.351347890458042 0.4999999999998563 0.0
1.851146954963573 0.4999999999998219 0.0
6.148853043290459 0.4999999999999989 0.0
6.65089532386231 0.5241211434250735 0.0
1.349104674975677 0.4758788558671475 0.0
7.150713697794147 0.4858064203922342 0.0
0.8492863006035025 0.4858064203396458 0.0
4.216343713145164 0.2287135668575249 0.0
3.7836562881134 0.7712864338025908 0.0
4.346988371127422 0.5000000019594898 0.0
4.213775907987267 0.7756803165215952 0.0
3.653011628408684 0.4999999990051173 0.0
3.786224091202296 0.224319683220954 0.0
7.572712389010231 0.5763628491757339 0.0
0.4272876103144935 0.5763628498169726 0.0
4.881741322202974 0.3185523670790996 0.0
3.118258676783759 0.6814476337404539 0.0
3.126854924363118 0.2792890251323842 0.0
4.873145074373641 0.7207109754187309 0.0
5.398381996912613 0.291094588046412 0.0
5.396092528392672 0.7230702977293901 0.0
2.603907471650227 0.7230702981371074 0.0
2.601618001742297 0.2910945873520305 0.0
4.065645388412852 0.1903894420877926 0.0
3.934354612281609 0.8096105573695707 0.0
4.268393145079946 0.6292513280674802 0.0
3.731606853978594 0.3707486723017213 0.0
4.265062587797852 0.3723525870906427 0.0
3.734937412407246 0.6276474138958879 0.0
5.89991820844496 0.720584760457478 0.0
5.899661142431216 0.2940789491313893 0.0
2.100338856207466 0.7059210507243335 0.0
2.100081790085733 0.2794152396968363 0.0
4.648216390708278 0.2460745758417431 0.0
3.350865525112209 0.7519279174007294 0.0
3.351783614314077 0.2460745727859678 0.0
4.649134469923633 0.7519279206208029 0.0
6.386000070083336 0.2800687217561524 0.0
6.399946740387701 0.7091877900019353 0.0
1.613999929083956 0.7199312783619409 0.0
1.600053258667474 0.2908122092889953 0.0
1.099018086220021 0.3101534564461602 0.0
1.099018086220183 0.6898465435530818 0.0
6.900981912171285 0.3101534566801202 0.0
6.900981912171287 0.689846543319878 0.0
3.934891793257755 0.2336799984692873 0.0
4.065108206439434 0.7663200008196746 0.0
5.133077706310633 0.254681732561614 0.0
5.131620328745691 0.7509194919064351 0.0
2.866922291796803 0.7453182673725732 0.0
2.868379670398546 0.2490805081265555 0.0
0.5973224633027379 0.3123440263675117 0.0
7.402677535116692 0.3123440263206204 0.0
7.70928508668797 0.2984218335093966 0.0
0.2907149122204558 0.2984218350042115 0.0
2.359042531710287 0.2526358364218651 0.0
2.362552667743482 0.7498876177132479 0.0
5.640957467742433 0.2526358368965552 0.0
5.637447332034727 0.7498876177447886 0.0
7.330771635020911 0.7204300868765696 0.0
0.6692283641678903 0.7204300870263377 0.0
6.141991504218947 0.7500064293114952 0.0
6.143214654121697 0.2541610692540839 0.0
1.858008494097047 0.2499935706645152 0.0
1.856785344746094 0.7458389307817799 0.0
1.360037479834015 0.7503851535261052 0.0
1.363297687800482 0.2332108063209677 0.0
6.636702311691573 0.7667891933666813 0.0
6.639962519949044 0.2496148464378299 0.0
7.14328150074831 0.2292696686424185 0.0
0.8567184978980538 0.2292696684503961 0.0
4.845173759433459 0.5000000012080886 0.0
3.15482623877425 0.4999999993865263 0.0
3.514470413944982 0.5755907957035395 0.0
4.485529584365944 0.5755907996488695 0.0
4.350214515329574 0.8947484376274254 0.0
3.64978548377064 0.1052515623441257 0.0
4.356280753270322 0.1397878825788729 0.0
3.643719248073251 0.8602121180766233 0.0
4.157657982820168 0.3023031440803671 0.0
3.842342017851872 0.6976968563131654 0.0
4.149794964153143 0.6947625877680722 0.0
3.850205035403508 0.3052374120341299 0.0
4.252863769441745 0.5000000013253333 0.0
3.747136230269581 0.4999999993774377 0.0
2.66150837620265 0.4835883053501762 0.0
5.338491622258749 0.4835883052760253 0.0
7.732076714471282 0.7613785341653052 0.0
0.267923285219987 0.7613785345749642 0.0
3.482582425594127 0.3988584940714734 0.0
4.517417574829351 0.3988584973195787 0.0
7.120961454429095 0.7969630876933931 0.0
0.8790385446795201 0.7969630878928393 0.0
4.524178509919695 0.1937066442020419 0.0
3.472973035782958 0.803602443762734 0.0
4.527026959328886 0.8036024455277256 0.0
3.475821495314308 0.1937066425220846 0.0
5.834485749168302 0.4775259269822466 0.0
2.16551424934095 0.5224740729963462 0.0
4.803832126993392 0.8343163881584211 0.0
3.196167871756218 0.1656836120733276 0.0
3.196167870279283 0.834316388182051 0.0
4.803832130306974 0.1656836112805605 0.0
1.646902821176459 0.5088844228822333 0.0
6.35309717778631 0.4911155766888507 0.0
4.128745436683365 0.8608937921704661 0.0
3.871254562700506 0.1391062074145501 0.0
7.783519314041498 0.4824599318584197 0.0
0.2164806854160975 0.4824599323519634 0.0
3.981228286637499 0.1341601386487245 0.0
4.018771713398118 0.8658398609794804 0.0
4.757705393330306 0.6277793253200102 0.0
3.245404476813698 0.3720431195654205 0.0
3.262406961538709 0.609092082228193 0.0
4.738552632749474 0.3854106153034425 0.0
4.980576921401999 0.1828043249223437 0.0
3.019423077460087 0.8171956749482756 0.0
4.975386875116307 0.8288560892267683 0.0
3.024613123995747 0.1711439108946455 0.0
7.537862127958827 0.7914398748884439 0.0
0.46213787149577 0.7914398749623154 0.0
4.150965283491015 0.1232311208167031 0.0
3.849034718225983 0.8767688792466098 0.0
0.6330166515036239 0.5212993800799176 0.0
7.366983347335347 0.5212993798709434 0.0
5.001451172914062 0.4591396125040952 0.0
2.998548825585332 0.5408603877155073 0.0
5.250532135494552 0.1623854812497458 0.0
5.24999687257574 0.8404382486850067 0.0
2.749794930508214 0.8396380739052673 0.0
2.749676059914328 0.161585306286623 0.0
1.150631951549359 0.5017906253149568 0.0
6.85747267660715 0.5137706215776152 0.0
2.938770240933895 0.3859183074771494 0.0
5.061229757952985 0.6140816927005173 0.0
5.521883200863776 0.8371838481144578 0.0
5.520780843451154 0.1567733764659754 0.0
2.479219155991939 0.1567733759623464 0.0
2.478116798894765 0.8371838481096507 0.0
2.208224060227917 0.1725929992863016 0.0
2.214655190115911 0.821187355218689 0.0
5.791775938918927 0.8274070011383262 0.0
5.785558009721889 0.1789659155514431 0.0
5.243140500145841 0.3651007420679131 0.0
5.247758683472709 0.6318228659349833 0.0
2.748336099792684 0.6332079670712092 0.0
2.766145970608876 0.3583112578457802 0.0
2.500794992947401 0.4517155340697119 0.0
5.499205006433885 0.4517155344186723 0.0
3.472119223331378 0.69283875816516 0.0
4.527880773131323 0.6928387614752662 0.0
2.445947440949104 0.6396216022327238 0.0
5.554052558509333 0.6396216019605415 0.0
1.976669571201813 0.1631348676957265 0.0
[...]
POINT_DATA 494

VECTORS Velocity float
0.0000000000000000 0.0000000000000000 0.0
0.8209739501636802 -0.1362423455779476 0.0
0.0000000000000000 0.0000000000000000 0.0
0.0000000000000000 0.0000000000000000 0.0
0.0000000000000000 0.0000000000000000 0.0
0.0000000000000000 0.0000000000000000 0.0
0.0000000000000000 0.0000000000000000 0.0
0.0000000000000000 0.0000000000000000 0.0
0.0000000000000000 0.0000000000000000 0.0
0.0000000000000000 0.0000000000000000 0.0
0.0000000000000000 0.0000000000000000 0.0
0.0000000000000000 0.0000000000000000 0.0
0.0000000000000000 0.0000000000000000 0.0
0.0000000000000000 0.0000000000000000 0.0
0.0000000000000000 0.0000000000000000 0.0
0.0000000000000000 0.0000000000000000 0.0
0.0000000000000000 0.0000000000000000 0.0
0.0000000000000000 0.0000000000000000 0.0
0.0000000000000000 0.0000000000000000 0.0
0.0000000000000000 0.0000000000000000 0.0
0.0000000000000000 0.0000000000000000 0.0
0.0000000000000000 0.0000000000000000 0.0
0.0000000000000000 0.0000000000000000 0.0
0.0000000000000000 0.0000000000000000 0.0
0.0000000000000000 0.0000000000000000 0.0
0.0000000000000000 0.0000000000000000 0.0
0.0000000000000000 0.0000000000000000 0.0
0.0000000000000000 0.0000000000000000 0.0
0.0000000000000000 0.0000000000000000 0.0
0.0000000000000000 0.0000000000000000 0.0
0.0000000000000000 0.0000000000000000 0.0
0.0000000000000000 0.0000000000000000 0.0
0.0000000000000000 0.0000000000000000 0.0
0.0000000000000000 0.0000000000000000 0.0
0.0000000000000000 0.0000000000000000 0.0
0.0000000000000000 0.0000000000000000 0.0
0.0000000000000000 0.0000000000000000 0.0
0.0000000000000000 0.0000000000000000 0.0
0.0000000000000000 0.0000000000000000 0.0
0.0000000000000000 0.0000000000000000 0.0
0.0000000000000000 0.0000000000000000 0.0
0.0000000000000000 0.0000000000000000 0.0
0.0000000000000000 0.0000000000000000 0.0
0.0000000000000000 0.0000000000000000 0.0
0.0000000000000000 0.0000000000000000 0.0
0.0000000000000000 0.0000000000000000 0.0
0.0000000000000000 0.0000000000000000 0.0
0.0000000000000000 0.0000000000000000 0.0
0.0000000000000000 0.0000000000000000 0.0
0.0000000000000000 0.0000000000000000 0.0
0.0000000000000000 0.0000000000000000 0.0
0.0000000000000000 0.0000000000000000 0.0
0.0000000000000000 0.0000000000000000 0.0
0.0000000000000000 0.0000000000000000 0.0
1.0789631503455039 0.5322354040130324 0.0
0.9949723117100511 0.1269828606762228 0.0
0.9620021064043612 -0.0892074906885958 0.0
1.0636502421635499 -0.4476212000583364 0.0
0.0000000000000000 0.0000000000000000 0.0
0.0000000000000000 0.0000000000000000 0.0
0.0000000000000000 0.0000000000000000 0.0
0.0000000000000000 0.0000000000000000 0.0
0.0000000000000000 0.0000000000000000 0.0
0.0000000000000000 0.0000000000000000 0.0
0.0000000000000000 0.0000000000000000 0.0
0.0000000000000000 0.0000000000000000 0.0
0.0000000000000000 0.0000000000000000 0.0
0.0000000000000000 0.0000000000000000 0.0
0.0000000000000000 0.0000000000000000 0.0
0.0000000000000000 0.0000000000000000 0.0
0.0000000000000000 0.0000000000000000 0.0
0.0000000000000000 0.0000000000000000 0.0
0.0000000000000000 0.0000000000000000 0.0
0.0000000000000000 0.0000000000000000 0.0
0.0000000000000000 0.0000000000000000 0.0
0.0000000000000000 0.0000000000000000 0.0
0.0000000000000000 0.0000000000000000 0.0
0.0000000000000000 0.0000000000000000 0.0
0.0000000000000000 0.0000000000000000 0.0
0.0000000000000000 0.0000000000000000 0.0
0.0000000000000000 0.0000000000000000 0.0
0.0000000000000000 0.0000000000000000 0.0
0.0000000000000000 0.0000000000000000 0.0
0.0000000000000000 0.0000000000000000 0.0
0.0000000000000000 0.0000000000000000 0.0
0.0000000000000000 0.0000000000000000 0.0
0.0000000000000000 0.0000000000000000 0.0
0.0000000000000000 0.0000000000000000 0.0
0.0000000000000000 0.0000000000000000 0.0
0.0000000000000000 0.0000000000000000 0.0
0.0000000000000000 0.0000000000000000 0.0
0.0000000000000000 0.0000000000000000 0.0
0.0000000000000000 0.0000000000000000 0.0
0.0000000000000000 0.0000000000000000 0.0
0.0000000000000000 0.0000000000000000 0.0
0.0000000000000000 0.0000000000000000 0.0
0.0000000000000000 0.0000000000000000 0.0
0.0000000000000000 0.0000000000000000 0.0
0.0000000000000000 0.0000000000000000 0.0
0.0000000000000000 0.0000000000000000 0.0
0.0000000000000000 0.0000000000000000 0.0
0.0000000000000000 0.0000000000000000 0.0
0.0000000000000000 0.0000000000000000 0.0
0.0000000000000000 0.0000000000000000 0.0
1.0000000000000000 0.0000000000000000 0.0
1.0000000000000000 0.0000000000000000 0.0
1.0000000000000000 0.0000000000000000 0.0
1.0000000000000000 0.0000000000000000 0.0
0.0000000000000000 0.0000000000000000 0.0
0.0000000000000000 0.0000000000000000 0.0
0.0000000000000000 0.0000000000000000 0.0
0.0000000000000000 0.0000000000000000 0.0
0.0000000000000000 0.0000000000000000 0.0
0.0000000000000000 0.0000000000000000 0.0
0.0000000000000000 0.0000000000000000 0.0
0.0000000000000000 0.0000000000000000 0.0
0.0000000000000000 0.0000000000000000 0.0
0.0000000000000000 0.0000000000000000 0.0
0.0000000000000000 0.0000000000000000 0.0
0.0000000000000000 0.0000000000000000 0.0
1.4404324451515353 0.0043412482221362 0.0
1.4428609872673746 0.0159611837716595 0.0
1.5525154599451996 -0.0059495148081261 0.0
1.5510525602511112 -0.0184246144276781 0.0
1.3618574985335705 0.0364986959264830 0.0
1.3653828031387361 0.0388517726452037 0.0
1.3725615618007498 -0.0888484846904300 0.0
1.3668981028694038 -0.0925125982827044 0.0
1.5451774725802245 0.0053535428944242 0.0
1.5436260148415022 -0.0023113872454118 0.0
1.5106298430686380 0.0043184554776905 0.0
1.5096202391149920 0.0003017111640766 0.0
1.5309445756580706 -0.0247652810801461 0.0
1.5320368412622032 0.0102475104236442 0.0
1.6108170570771529 0.0071574556569141 0.0
1.6079608583122660 -0.0146517338543389 0.0
1.3488730461876293 0.2569055339708859 0.0
1.3466722163214129 0.2556722131188766 0.0
1.2381878911531625 0.0162673267699107 0.0
1.3896288945439264 -0.1826317868899765 0.0
1.2370629003301001 0.0117157076513373 0.0
1.3927711105810368 -0.1820961050656525 0.0
1.5349098607022575 0.0165355135829745 0.0
1.5202531300387110 -0.0350116101265515 0.0
1.3362034904596154 0.0207473082868209 0.0
1.3314534429812408 0.0191546113835717 0.0
1.2953063632973500 -0.0127425723623357 0.0
1.2835008065630593 -0.0112073866532775 0.0
1.3132511428709601 -0.0004963280279842 0.0
1.2353795470366757 -0.0133643104456613 0.0
1.2172224158465046 0.0089425560353799 0.0
1.3259394713791268 -0.0014866476720654 0.0
1.4617639391719728 0.1245070366402818 0.0
1.4619822875417474 0.1234034935469205 0.0
1.3615326471180145 -0.2229237668172047 0.0
1.3645522513799102 -0.2218567443437592 0.0
1.4098267620896183 0.2786656035774968 0.0
1.4043648731581249 0.2841143493639832 0.0
1.2058392768405770 -0.0320720223108278 0.0
1.3008206280153292 0.0009641335016251 0.0
1.2917374365212693 -0.0018865661414180 0.0
1.2123246003187242 -0.0304825550599285 0.0
1.1426516450831476 -0.0394203223090005 0.0
1.1383957874953199 -0.0331951620872440 0.0
1.1579244781333702 0.0162007333250935 0.0
1.1550997830437983 0.0069466517789527 0.0
1.2550568908602824 0.0053350847751312 0.0
1.2418150556830920 -0.0160065795677553 0.0
1.2448280239683058 0.0110902457478489 0.0
1.2508146887701248 -0.0081767772986867 0.0
1.4322730396988030 -0.0188663293295609 0.0
1.3282711081263512 0.0565060964862887 0.0
1.4329925728032451 0.0215756263907520 0.0
1.3251217895875154 -0.0511969826677029 0.0
1.5817124701204810 -0.1974859993663216 0.0
1.5809484592367302 -0.1981548255558253 0.0
1.1949937394384915 -0.0323408639398346 0.0
1.2112791140863310 0.0336783042164062 0.0
1.1834836988355348 -0.0398713053205354 0.0
1.2193461402665260 0.0209011959123926 0.0
1.4276856502919777 0.0173227829387674 0.0
1.4350103018655223 -0.0162001603277334 0.0
1.2924413461806377 -0.1572339416729530 0.0
1.2825262793586134 0.1880848570313471 0.0
1.2144604058368065 0.0532999930099402 0.0
1.1739398597232065 -0.0076196181910103 0.0
1.2103774971954362 -0.0377030903463893 0.0
1.1858961285161005 0.0340584941455430 0.0
1.2912602424861115 0.0045146375887575 0.0
1.2948610567870864 -0.0100422988687647 0.0
1.1829473869709795 0.0377871138927693 0.0
1.2314502954727287 -0.0614238322764628 0.0
1.1901252391443862 0.0401512374433996 0.0
1.2240422571503264 -0.0598444360474210 0.0
1.1911073336595819 0.0667093269435301 0.0
1.1623901782592387 -0.0453835206183994 0.0
1.1344923010283510 -0.0600612658856112 0.0
1.2144474838473938 0.0534473676897732 0.0
1.1303299573390146 -0.0206194001950981 0.0
1.1284955146023159 0.0161611796074902 0.0
1.4920307435328513 0.0122563183653745 0.0
1.4919787231334523 0.0048411693378499 0.0
1.3738940510029276 0.0382495305271807 0.0
1.3715945375532872 -0.0555406152808820 0.0
0.5414134491624821 -0.0044365089150899 0.0
0.5281173068317359 -0.0047871962894455 0.0
0.6380908365251979 0.0967904827500945 0.0
0.6520087205860792 0.0967127453203823 0.0
1.4481651909203543 0.3951351192150596 0.0
1.4448909879362877 0.3949126943514046 0.0
1.5137598863452379 -0.3092517371811858 0.0
1.5149253674248868 -0.3072626558559497 0.0
0.9491053730008605 0.0132676447293053 0.0
0.9492615737002749 0.0262102467615212 0.0
1.5522400706916091 0.0222607286957874 0.0
1.5479992299908094 -0.0308054457135038 0.0
1.1700628411700342 0.1925314559954089 0.0
1.2009577381833578 -0.2687348618911650 0.0
1.3886090359031324 -0.0449634037819040 0.0
1.3885820789487200 0.0249130893210022 0.0
0.7576297076288450 -0.0095989495099067 0.0
0.7748929517899675 0.0083981558264448 0.0
1.0107191728871652 -0.0188517022763768 0.0
1.0117797327743259 -0.0235434490941423 0.0
1.0255859048909552 0.0025429836205659 0.0
1.0276446270649962 0.0005837721354619 0.0
1.5216958642769707 -0.0183823839369816 0.0
1.5200479330652228 -0.0356910277387485 0.0
0.7301331213224206 -0.0893117074914379 0.0
0.7335778005003002 -0.0904374920675785 0.0
0.7750078657556750 0.0738190987677633 0.0
0.7794938893324502 0.0729543385512078 0.0
1.4618207340895866 0.0335446117690724 0.0
1.4622810886584667 0.0281033021348866 0.0
0.9213580450321922 -0.1001801380463579 0.0
0.9228128085132230 -0.1020720953097787 0.0
1.3432497069233913 -0.0018816409793706 0.0
1.2687509376972987 0.0147325844238950 0.0
1.0052755120070003 -0.0830852055845664 0.0
1.0057473312722989 -0.0832395748126829 0.0
1.4440237041904107 -0.0394898083709193 0.0
1.4535406867931464 -0.0434398299046288 0.0
1.4096508289192149 0.0543907598779271 0.0
1.4163508353430632 0.0600249224710985 0.0
0.8107408631033005 0.0015154445901103 0.0
0.8094174180133428 0.0010865211683698 0.0
0.7635271220746804 0.0119453922882209 0.0
0.7575445126642766 0.0091403820355172 0.0
0.8299087196385888 0.0342539704008690 0.0
0.8491185227099589 -0.0598682943970186 0.0
0.7645308882336938 0.0711469689509240 0.0
0.7658372010524679 0.0696165648561524 0.0
1.5494785553782415 -0.0166111241762022 0.0
1.5579519877233088 0.0108618032630521 0.0
1.5007368972190254 -0.0086571146146541 0.0
1.5003614321694108 -0.0130564495933885 0.0
0.7371105825279949 0.0023217292276101 0.0
0.7550214660644875 0.0179923506633216 0.0
0.7423675529673450 -0.0088062113201583 0.0
0.7358124609362179 0.0093298533962653 0.0
1.5847933825520466 0.0057363442852534 0.0
1.5884824989995709 -0.0472808542610139 0.0
1.4560505894090812 -0.0325800871454616 0.0
1.4529210713476592 -0.0292098701366993 0.0
0.7413980981992436 -0.0093602467117697 0.0
0.6682631383630441 0.0158242157339686 0.0
0.6768525169291455 -0.0162326762225607 0.0
0.7292937186641824 0.0086046216656416 0.0
0.8345525748340860 0.0322320212309274 0.0
0.8097876217440918 -0.0185133842245394 0.0
0.8383671328848180 0.0218256167294158 0.0
0.8207441714170053 -0.0258264167478070 0.0
1.3999274229186165 0.0088782426744427 0.0
1.4120566078049883 -0.0085188020015973 0.0
1.4006536232619762 0.0045535472845235 0.0
1.4125812474372550 -0.0141164643874427 0.0
1.5265733688032739 0.0099320996785251 0.0
1.5197017021886345 -0.0129383918354596 0.0
1.3227305113920083 0.0133801134005441 0.0
1.3437651849732095 -0.0353333592959562 0.0
1.3941420638799689 0.0024774642159045 0.0
1.3973267491494243 -0.0059993225333083 0.0
0.7515851306846338 -0.0189893353979550 0.0
0.6905925458250675 0.0232744303771844 0.0
0.7493038850622303 -0.0207813978779484 0.0
0.6944591342654999 0.0233071105078268 0.0
0.6019811719646008 -0.1049940928009057 0.0
0.6037012923476108 -0.1006284041946652 0.0
1.2855677267032481 0.1035374153578619 0.0
1.2847677864257054 0.1024297134353946 0.0
1.3973875676013696 -0.0081670645682658 0.0
1.3646538275257210 -0.0262695324978459 0.0
1.3683066928667709 0.0217182599366025 0.0
1.3993015268759907 0.0041594612832857 0.0
0.8059213423261656 -0.0601592361707068 0.0
0.8061845717506376 0.0682732521047206 0.0
1.0787675719668353 -0.1220160915701389 0.0
1.0762229749137406 -0.1136582514470578 0.0
1.0941827419913281 0.1662685478031539 0.0
1.0917721468157879 0.1713163931040565 0.0
0.8618460837546557 -0.0421665777979647 0.0
0.8325510979573232 0.0506022927352432 0.0
0.8549801002474448 -0.0394975960792786 0.0
0.8401331341308006 0.0541691123898444 0.0
1.5081411150933759 -0.0115833208018224 0.0
1.5069746181453938 -0.0142474480824956 0.0
0.7029035544174462 -0.0197697428086721 0.0
0.7272900778353785 0.0034195817732238 0.0
0.6771251714583171 0.0217449276802115 0.0
0.7445218359864463 0.0390501360162251 0.0
0.6827728024669657 -0.0038653551419169 0.0
0.6855964738742129 0.0027402427341521 0.0
1.4003952611194721 -0.1576480749402052 0.0
1.3944560486929696 -0.1561552678909654 0.0
1.3103634341879116 0.2061899485378453 0.0
1.3068447058346471 0.1963938327828271 0.0
0.5552681397235028 -0.0534985344712056 0.0
0.5577547054678816 -0.0533927599411832 0.0
0.5650292798483048 0.0514999119155041 0.0
0.5679427093996083 0.0501644444970374 0.0
1.3895060653832714 -0.0075847924245546 0.0
1.3953188744519354 -0.0034532585019085 0.0
1.3219863692971623 -0.1181293142437225 0.0
1.3267649467321592 -0.1186156268408882 0.0
1.3711562717590118 0.1215767594596129 0.0
1.3636393783868188 0.1219588383811232 0.0
0.8673935022102793 0.0400596692910556 0.0
0.7748955803099746 -0.1037896123449027 0.0
0.8576455351130975 0.0472687830866350 0.0
0.7874699781148070 -0.0933249483552810 0.0
1.3790931053640314 -0.0381449001326652 0.0
1.3548982104538481 0.0430365012160360 0.0
1.3726017170210816 -0.0348889173987570 0.0
1.3604496810187185 0.0469084697419033 0.0
1.4744746987035229 -0.0067667684176593 0.0
1.4726209670378274 -0.0202024161808287 0.0
0.6686627329812750 -0.0020110460923901 0.0
0.6741188389798694 0.0080987547496923 0.0
1.3745278336415736 0.0650407494917004 0.0
1.3812569431443407 0.0521656966542127 0.0
1.5034559285544198 -0.0372075298746495 0.0
1.4841228509264006 0.0399439850674986 0.0
0.7489368989667461 0.0680525124163796 0.0
0.7407450516796880 0.0731550576225452 0.0
1.4399867258969330 -0.0317023635767154 0.0
1.4054721593797659 0.0368846929171847 0.0
1.4080926303781844 -0.0523585667449089 0.0
1.4373117553209827 0.0093288088924819 0.0
1.5893728139602494 0.0003247617447177 0.0
1.6026091008492971 -0.0070092077545659 0.0
0.5246382898671345 -0.0000050475534947 0.0
0.5248136022612609 0.0018186253939344 0.0
1.5033808098095465 -0.0193506239955714 0.0
1.5037626491987239 0.0189320768372797 0.0
0.9399795779067323 0.2253697157745289 0.0
0.9095771894086256 -0.2213031592297664 0.0
1.3415880954364230 -0.0108249739124293 0.0
1.3472023263322135 0.0019012543783515 0.0
1.3305820113637179 0.0131308713580769 0.0
1.3521786109818288 -0.0380294146561678 0.0
1.3250518974489607 0.0017598729195265 0.0
1.3234755400619180 -0.0011490496029682 0.0
1.1950073128283507 -0.0997611226611444 0.0
1.1953205796189184 -0.1006070480341143 0.0
1.3974091939953617 -0.0310582945794684 0.0
1.3684410919651151 0.0244014010056224 0.0
1.4398856176383388 -0.0185025983392519 0.0
1.4320040314539346 0.0179487582834299 0.0
1.4032829926869201 -0.0344328684035670 0.0
1.3743410220260055 0.0273981083121145 0.0
0.4663118024638046 0.0587417813281843 0.0
0.4674827750439708 0.0548392484654412 0.0
0.4611859589023438 -0.0416664690335009 0.0
0.4565035971325730 -0.0449178900143094 0.0
1.4353925777050012 -0.2798715159684672 0.0
1.4364787571241724 -0.2798765786026695 0.0
0.4157270399502380 0.0043338149309165 0.0
0.4222930194421783 -0.0079397199239835 0.0
1.5207938679760844 0.2806747510158106 0.0
1.5214311034679480 0.2786699007671645 0.0
0.5926222341728586 0.0939844900497553 0.0
0.5934769252521134 0.0933527488266732 0.0
1.4987029289276379 0.0188117785532755 0.0
1.4989902395029222 -0.0187286676442979 0.0
1.3280698510483084 -0.0212601876478001 0.0
1.3357642993413346 0.0243121376726222 0.0
1.4200788457216804 -0.2901484980829763 0.0
1.4179689449639254 -0.2947140047049733 0.0
1.3786227234178952 0.4066847584051171 0.0
1.3858949650548629 0.3986415601281520 0.0
1.4948747626968162 -0.0021659034875457 0.0
1.4984072314677146 -0.0051923781614594 0.0
0.5109357345830768 0.0601168683867987 0.0
0.4919661250052502 -0.0640760289700813 0.0
0.5027394816829640 0.0619830415016403 0.0
0.5011993077885240 -0.0618543345271966 0.0
0.4545770136201366 0.0241734454037454 0.0
0.4707117980740465 0.0241787211557534 0.0
0.5011129242487483 -0.0132497345184232 0.0
0.5173467797618894 -0.0145933294742598 0.0
1.1518148534234658 -0.1684917288287706 0.0
1.1621899042773156 -0.1640981855316523 0.0
1.1882219383395429 0.2125811303163480 0.0
1.1790267161079102 0.2176945754723899 0.0
1.2013965646448412 -0.2672266872897473 0.0
1.1793551882829740 0.2619572805234106 0.0
1.4165899272293347 0.0186499466745055 0.0
1.4187657244641274 0.0207325273837540 0.0
0.5338821500811963 -0.0067782465563626 0.0
0.5096527630356482 -0.0000077390384648 0.0
0.5400173618305657 0.0102775974196221 0.0
0.5177840119600176 0.0029711780165366 0.0
1.4491675544621452 -0.0078857036920471 0.0
1.4423798292006400 0.0022758115292350 0.0
1.3245800424756289 -0.0183867193793734 0.0
1.3300142523282950 -0.0194469007041104 0.0
0.8801312702278943 0.2606742894405115 0.0
0.9377559611145199 -0.2419426363356898 0.0
1.0915193505424350 0.0905945927684573 0.0
1.0899904018796625 0.0941565363180990 0.0
1.1092134725733884 -0.1181126191722291 0.0
1.1026947373480813 -0.1177594189697272 0.0
0.6416130040142725 -0.1316427835085776 0.0
0.6542999180351815 0.1383620865248167 0.0
0.3306816496327946 -0.0260975363065899 0.0
0.3315234345312056 -0.0248224459814580 0.0
0.3384832135150735 -0.0079617644909774 0.0
0.3391417822317119 -0.0077765472212182 0.0
0.3785869166201699 -0.0106119221244217 0.0
0.3796074876224659 0.0106731772113168 0.0
1.2228128625967711 0.3153207230998130 0.0
1.1731308904086926 -0.2586215211253481 0.0
0.5223231140203155 -0.0612083441990523 0.0
0.5156067410833415 0.0739268739718435 0.0
0.5186494137291111 -0.0601251694733633 0.0
0.5194893914353808 0.0756589101524975 0.0
1.4757957443157639 0.0445902988481243 0.0
1.4834327223788815 -0.0565714575013831 0.0
0.4637052816498911 0.0727133180201153 0.0
0.5280191893739558 -0.1199763804237689 0.0
0.9441208591526056 0.0355322542720077 0.0
0.9417878117958877 0.0355114222372297 0.0
0.9544585396538819 -0.0309806829209934 0.0
0.9541700078629466 -0.0294691470621018 0.0
0.8622049070831317 0.0152318822784515 0.0
0.8625090484642185 0.0253177111739209 0.0
0.5568940581275516 0.0510283847198439 0.0
0.5310662173545798 -0.0619293223399978 0.0
0.5539192976408753 0.0505125060323323 0.0
0.5319189187487164 -0.0620969660687555 0.0
1.4957473909450523 -0.0041288826931088 0.0
1.4947274044090240 -0.0013920524954486 0.0
0.4504748494022217 -0.0745410785328497 0.0
0.4897181436973084 0.0508796461896417 0.0
0.4789614795632996 0.0618222970302097 0.0
0.4639792077920632 -0.0626765212529843 0.0
1.1149224179538124 0.0128659029648706 0.0
1.1354757116733647 0.0188239825784834 0.0
1.1595877141983020 -0.0414553722563243 0.0
1.1504438326200352 -0.0410023072892614 0.0
1.3210405322398753 -0.0041306152665619 0.0
1.3147748193743345 0.0035867690475733 0.0
1.3455423316520723 -0.0583399434395820 0.0
1.3520006218505987 -0.0437285227320287 0.0
1.1353339504081619 -0.0857154306285199 0.0
1.1385874808551688 -0.0874963946420368 0.0
0.5511908536301982 -0.0024864707510908 0.0
0.5451764718119233 0.0054687293178998 0.0
0.5517879801293979 0.0033599718594612 0.0
0.5435717635842806 -0.0050287333403641 0.0