# vtk DataFile Version 3.0
LucasCarvalhoTCC Results
ASCII

DATASET POLYDATA
FIELD FieldData 1
TIME 1 1 double
4.2

POINTS 494 float
0.0 0.0 0.0
8.0 0.0 0.0
8.0 1.0 0.0
0.0 1.0 0.0
4.0 0.0 0.0
4.0 1.0 0.0
4.0 0.35 0.0
4.0 0.65 0.0
0.2010296266416496 1.0 0.0
0.3986915135488555 1.0 0.0
0.5930420631591132 1.0 0.0
0.7841367769318693 1.0 0.0
0.9720301907499852 1.0 0.0
1.156775924166146 1.0 0.0
1.33842670621592 1.0 0.0
1.517034389070868 1.0 0.0
1.69264994674003 1.0 0.0
1.865323550794866 1.0 0.0
2.035104414722059 1.0 0.0
2.202040983487818 1.0 0.0
2.366180993436638 1.0 0.0
2.527571282866703 1.0 0.0
2.686257831390245 1.0 0.0
2.842286022819771 1.0 0.0
2.995700353514032 1.0 0.0
3.146544637914273 1.0 0.0
3.294861880721452 1.0 0.0
3.440694398353104 1.0 0.0
3.58408394609007 1.0 0.0
3.725071294102791 1.0 0.0
3.863696788294668 1.0 0.0
4.136303211705004 1.0 0.0
4.274928705896546 1.0 0.0
4.415916053908917 1.0 0.0
4.55930560164552 1.0 0.0
4.7051381192768 1.0 0.0
4.853455362083593 1.0 0.0
5.004299646483437 1.0 0.0
5.157713977177285 1.0 0.0
5.313742168606385 1.0 0.0
5.472428717129489 1.0 0.0
5.6338190065591 1.0 0.0
5.797959016507455 1.0 0.0
5.96489558527273 1.0 0.0
6.134676449200184 1.0 0.0
6.307350053255487 1.0 0.0
6.482965610925135 1.0 0.0
6.661573293780584 1.0 0.0
6.843224075830887 1.0 0.0
7.027969809247587 1.0 0.0
7.215863223066262 1.0 0.0
7.4069579368396 1.0 0.0
7.601308486450315 1.0 0.0
7.798970373357896 1.0 0.0
8.0 0.7999999999999996 0.0
8.0 0.6000000000013874 0.0
8.0 0.4000000000016649 0.0
8.0 0.2000000000008324 0.0
7.798970373357898 0.0 0.0
7.601308486450317 0.0 0.0
7.406957936839601 0.0 0.0
7.215863223066265 0.0 0.0
7.02796980924759 0.0 0.0
6.843224075830888 0.0 0.0
6.661573293780592 0.0 0.0
6.482965610925139 0.0 0.0
6.307350053255492 0.0 0.0
6.134676449200188 0.0 0.0
5.964895585272735 0.0 0.0
5.797959016507459 0.0 0.0
5.633819006559103 0.0 0.0
5.472428717129493 0.0 0.0
5.313742168606389 0.0 0.0
5.157713977177288 0.0 0.0
5.004299646483441 0.0 0.0
4.853455362083597 0.0 0.0
4.705138119276803 0.0 0.0
4.559305601645523 0.0 0.0
4.415916053908919 0.0 0.0
4.274928705896549 0.0 0.0
4.136303211705007 0.0 0.0
3.863696788294383 0.0 0.0
3.725071294102209 0.0 0.0
3.584083946089184 0.0 0.0
3.440694398352564 0.0 0.0
3.29486188072223 0.0 0.0
3.146544637916415 0.0 0.0
2.995700353517581 0.0 0.0
2.842286022824779 0.0 0.0
2.68625783139676 0.0 0.0
2.527571282874774 0.0 0.0
2.366180993446318 0.0 0.0
2.202040983499156 0.0 0.0
2.035104414735112 0.0 0.0
1.865323550807426 0.0 0.0
1.692649946751479 0.0 0.0
1.517034389081164 0.0 0.0
1.338426706225015 0.0 0.0
1.156775924174005 0.0 0.0
0.9720301907565596 0.0 0.0
0.784136776937109 0.0 0.0
0.5930420631629705 0.0 0.0
0.3986915135514271 0.0 0.0
0.2010296266429896 0.0 0.0
0.0 0.199999999999558 0.0
0.0 0.3999999999989746 0.0
0.0 0.5999999999989464 0.0
0.0 0.7999999999994731 0.0
4.065082561150232 0.3648546699507293 0.0
4.117274722996153 0.4064765305061043 0.0
4.146239186965635 0.4666218605127571 0.0
4.146239186588658 0.5333781411388893 0.0
4.117274722147235 0.5935234705584039 0.0
4.065082560620447 0.6351453303044018 0.0
3.934917439190226 0.6351453302132268 0.0
3.882725277520537 0.5935234701418048 0.0
3.853760813071839 0.5333781396514286 0.0
3.853760813263242 0.4666218595099774 0.0
3.882725277782338 0.4064765295299076 0.0
3.934917439246251 0.3648546697597932 0.0
3.348071016817302 0.5037366844559412 0.0
4.65817771841185 0.4813089492125461 0.0
5.148432135339639 0.5000000000000013 0.0
2.851567863014233 0.5000000000000465 0.0
4.406326506211093 0.3072680842959042 0.0
3.575604791543614 0.6706702532911111 0.0
4.424395205595821 0.6706702556565258 0.0
3.593673497058965 0.3072680820819204 0.0
5.648652107845511 0.5000000000000006 0.0
2.351347890458042 0.4999999999998563 0.0
1.851146954963573 0.4999999999998219 0.0
6.148853043290459 0.4999999999999989 0.0
6.65089532386231 0.5241211434250735 0.0
1.349104674975677 0.4758788558671475 0.0
7.150713697794147 0.4858064203922342 0.0
0.8492863006035025 0.4858064203396458 0.0
4.216343713145164 0.2287135668575249 0.0
3.7836562881134 0.7712864338025908 0.0
4.346988371127422 0.5000000019594898 0.0
4.213775907987267 0.7756803165215952 0.0
3.653011628408684 0.4999999990051173 0.0
3.786224091202296 0.224319683220954 0.0
7.572712389010231 0.5763628491757339 0.0
0.4272876103144935 0.5763628498169726 0.0
4.881741322202974 0.3185523670790996 0.0
3.118258676783759 0.6814476337404539 0.0
3.126854924363118 0.2792890251323842 0.0
4.873145074373641 0.7207109754187309 0.0
5.398381996912613 0.291094588046412 0.0
5.396092528392672 0.7230702977293901 0.0
2.603907471650227 0.7230702981371074 0.0
2.601618001742297 0.2910945873520305 0.0
4.065645388412852 0.1903894420877926 0.0
3.934354612281609 0.8096105573695707 0.0
4.268393145079946 0.6292513280674802 0.0
3.731606853978594 0.3707486723017213 0.0
4.265062587797852 0.3723525870906427 0.0
3.734937412407246 0.6276474138958879 0.0
5.89991820844496 0.720584760457478 0.0
5.899661142431216 0.2940789491313893 0.0
2.100338856207466 0.7059210507243335 0.0
2.100081790085733 0.2794152396968363 0.0
4.648216390708278 0.2460745758417431 0.0
3.350865525112209 0.7519279174007294 0.0
3.351783614314077 0.2460745727859678 0.0
4.649134469923633 0.7519279206208029 0.0
6.386000070083336 0.2800687217561524 0.0
6.399946740387701 0.7091877900019353 0.0
1.613999929083956 0.7199312783619409 0.0
1.600053258667474 0.2908122092889953 0.0
1.099018086220021 0.3101534564461602 0.0
1.099018086220183 0.6898465435530818 0.0
6.900981912171285 0.3101534566801202 0.0
6.900981912171287 0.689846543319878 0.0
3.934891793257755 0.2336799984692873 0.0
4.065108206439434 0.7663200008196746 0.0
5.133077706310633 0.254681732561614 0.0
5.131620328745691 0.7509194919064351 0.0
2.866922291796803 0.7453182673725732 0.0
2.868379670398546 0.2490805081265555 0.0
0.5973224633027379 0.3123440263675117 0.0
7.402677535116692 0.3123440263206204 0.0
7.70928508668797 0.2984218335093966 0.0
0.2907149122204558 0.2984218350042115 0.0
2.359042531710287 0.2526358364218651 0.0
2.362552667743482 0.7498876177132479 0.0
5.640957467742433 0.2526358368965552 0.0
5.637447332034727 0.7498876177447886 0.0
7.330771635020911 0.7204300868765696 0.0
0.6692283641678903 0.7204300870263377 0.0
6.141991504218947 0.7500064293114952 0.0
6.143214654121697 0.2541610692540839 0.0
1.858008494097047 0.2499935706645152 0.0
1.856785344746094 0.7458389307817799 0.0
1.360037479834015 0.7503851535261052 0.0
1.363297687800482 0.2332108063209677 0.0
6.636702311691573 0.7667891933666813 0.0
6.639962519949044 0.2496148464378299 0.0
7.14328150074831 0.2292696686424185 0.0
0.8567184978980538 0.2292696684503961 0.0
4.845173759433459 0.5000000012080886 0.0
3.15482623877425 0.4999999993865263 0.0
3.514470413944982 0.5755907957035395 0.0
4.485529584365944 0.5755907996488695 0.0
4.350214515329574 0.8947484376274254 0.0
3.64978548377064 0.1052515623441257 0.0
4.356280753270322 0.1397878825788729 0.0
3.643719248073251 0.8602121180766233 0.0
4.157657982820168 0.3023031440803671 0.0
3.842342017851872 0.6976968563131654 0.0
4.149794964153143 0.6947625877680722 0.0
3.850205035403508 0.3052374120341299 0.0
4.252863769441745 0.5000000013253333 0.0
3.747136230269581 0.4999999993774377 0.0
2.66150837620265 0.4835883053501762 0.0
5.338491622258749 0.4835883052760253 0.0
7.732076714471282 0.7613785341653052 0.0
0.267923285219987 0.7613785345749642 0.0
3.482582425594127 0.3988584940714734 0.0
4.517417574829351 0.3988584973195787 0.0
7.120961454429095 0.7969630876933931 0.0
0.8790385446795201 0.7969630878928393 0.0
4.524178509919695 0.1937066442020419 0.0
3.472973035782958 0.803602443762734 0.0
4.527026959328886 0.8036024455277256 0.0
3.475821495314308 0.1937066425220846 0.0
5.834485749168302 0.4775259269822466 0.0
2.16551424934095 0.5224740729963462 0.0
4.803832126993392 0.8343163881584211 0.0
3.196167871756218 0.1656836120733276 0.0
3.196167870279283 0.834316388182051 0.0
4.803832130306974 0.1656836112805605 0.0
1.646902821176459 0.5088844228822333 0.0
6.35309717778631 0.4911155766888507 0.0
4.128745436683365 0.8608937921704661 0.0
3.871254562700506 0.1391062074145501 0.0
7.783519314041498 0.4824599318584197 0.0
0.2164806854160975 0.4824599323519634 0.0
3.981228286637499 0.1341601386487245 0.0
4.018771713398118 0.8658398609794804 0.0
4.757705393330306 0.6277793253200102 0.0
3.245404476813698 0.3720431195654205 0.0
3.262406961538709 0.609092082228193 0.0
4.738552632749474 0.3854106153034425 0.0
4.980576921401999 0.1828043249223437 0.0
3.019423077460087 0.8171956749482756 0.0
4.975386875116307 0.8288560892267683 0.0
3.024613123995747 0.1711439108946455 0.0
7.537862127958827 0.7914398748884439 0.0
0.46213787149577 0.7914398749623154 0.0
4.150965283491015 0.1232311208167031 0.0
3.849034718225983 0.8767688792466098 0.0
0.6330166515036239 0.5212993800799176 0.0
7.366983347335347 0.5212993798709434 0.0
5.001451172914062 0.4591396125040952 0.0
2.998548825585332 0.5408603877155073 0.0
5.250532135494552 0.1623854812497458 0.0
5.24999687257574 0.8404382486850067 0.0
2.749794930508214 0.8396380739052673 0.0
2.749676059914328 0.161585306286623 0.0
1.150631951549359 0.5017906253149568 0.0
6.85747267660715 0.5137706215776152 0.0
2.938770240933895 0.3859183074771494 0.0
5.061229757952985 0.6140816927005173 0.0
5.521883200863776 0.8371838481144578 0.0
5.520780843451154 0.1567733764659754 0.0
2.479219155991939 0.1567733759623464 0.0
2.478116798894765 0.8371838481096507 0.0
2.208224060227917 0.1725929992863016 0.0
2.214655190115911 0.821187355218689 0.0
5.791775938918927 0.8274070011383262 0.0
5.785558009721889 0.1789659155514431 0.0
5.243140500145841 0.3651007420679131 0.0
5.247758683472709 0.6318228659349833 0.0
2.748336099792684 0.6332079670712092 0.0
2.766145970608876 0.3583112578457802 0.0
2.500794992947401 0.4517155340697119 0.0
5.499205006433885 0.4517155344186723 0.0
3.472119223331378 0.69283875816516 0.0
4.527880773131323 0.6928387614752662 0.0
2.445947440949104 0.6396216022327238 0.0
5.554052558509333 0.6396216019605415 0.0
1.976669571201813 0.1631348676957265 0.0
[...]
POINT_DATA 494

VECTORS Velocity float
0.0000000000000000 0.0000000000000000 0.0
0.8199011019067459 -0.1380523739608356 0.0
0.0000000000000000 0.0000000000000000 0.0
0.0000000000000000 0.0000000000000000 0.0
0.0000000000000000 0.0000000000000000 0.0
0.0000000000000000 0.0000000000000000 0.0
0.0000000000000000 0.0000000000000000 0.0
0.0000000000000000 0.0000000000000000 0.0
0.0000000000000000 0.0000000000000000 0.0
0.0000000000000000 0.0000000000000000 0.0
0.0000000000000000 0.0000000000000000 0.0
0.0000000000000000 0.0000000000000000 0.0
0.0000000000000000 0.0000000000000000 0.0
0.0000000000000000 0.0000000000000000 0.0
0.0000000000000000 0.0000000000000000 0.0
0.0000000000000000 0.0000000000000000 0.0
0.0000000000000000 0.0000000000000000 0.0
0.0000000000000000 0.0000000000000000 0.0
0.0000000000000000 0.0000000000000000 0.0
0.0000000000000000 0.0000000000000000 0.0
0.0000000000000000 0.0000000000000000 0.0
0.0000000000000000 0.0000000000000000 0.0
0.0000000000000000 0.0000000000000000 0.0
0.0000000000000000 0.0000000000000000 0.0
0.0000000000000000 0.0000000000000000 0.0
0.0000000000000000 0.0000000000000000 0.0
0.0000000000000000 0.0000000000000000 0.0
0.0000000000000000 0.0000000000000000 0.0
0.0000000000000000 0.0000000000000000 0.0
0.0000000000000000 0.0000000000000000 0.0
0.0000000000000000 0.0000000000000000 0.0
0.0000000000000000 0.0000000000000000 0.0
0.0000000000000000 0.0000000000000000 0.0
0.0000000000000000 0.0000000000000000 0.0
0.0000000000000000 0.0000000000000000 0.0
0.0000000000000000 0.0000000000000000 0.0
0.0000000000000000 0.0000000000000000 0.0
0.0000000000000000 0.0000000000000000 0.0
0.0000000000000000 0.0000000000000000 0.0
0.0000000000000000 0.0000000000000000 0.0
0.0000000000000000 0.0000000000000000 0.0
0.0000000000000000 0.0000000000000000 0.0
0.0000000000000000 0.0000000000000000 0.0
0.0000000000000000 0.0000000000000000 0.0
0.0000000000000000 0.0000000000000000 0.0
0.0000000000000000 0.0000000000000000 0.0
0.0000000000000000 0.0000000000000000 0.0
0.0000000000000000 0.0000000000000000 0.0
0.0000000000000000 0.0000000000000000 0.0
0.0000000000000000 0.0000000000000000 0.0
0.0000000000000000 0.0000000000000000 0.0
0.0000000000000000 0.0000000000000000 0.0
0.0000000000000000 0.0000000000000000 0.0
0.0000000000000000 0.0000000000000000 0.0
1.0770870341391485 0.5444396130829332 0.0
0.9956026710868228 0.1379809518073069 0.0
0.9602256917996153 -0.0877019350711367 0.0
1.0633876045156465 -0.4538777641013860 0.0
0.0000000000000000 0.0000000000000000 0.0
0.0000000000000000 0.0000000000000000 0.0
0.0000000000000000 0.0000000000000000 0.0
0.0000000000000000 0.0000000000000000 0.0
0.0000000000000000 0.0000000000000000 0.0
0.0000000000000000 0.0000000000000000 0.0
0.0000000000000000 0.0000000000000000 0.0
0.0000000000000000 0.0000000000000000 0.0
0.0000000000000000 0.0000000000000000 0.0
0.0000000000000000 0.0000000000000000 0.0
0.0000000000000000 0.0000000000000000 0.0
0.0000000000000000 0.0000000000000000 0.0
0.0000000000000000 0.0000000000000000 0.0
0.0000000000000000 0.0000000000000000 0.0
0.0000000000000000 0.0000000000000000 0.0
0.0000000000000000 0.0000000000000000 0.0
0.0000000000000000 0.0000000000000000 0.0
0.0000000000000000 0.0000000000000000 0.0
0.0000000000000000 0.0000000000000000 0.0
0.0000000000000000 0.0000000000000000 0.0
0.0000000000000000 0.0000000000000000 0.0
0.0000000000000000 0.0000000000000000 0.0
0.0000000000000000 0.0000000000000000 0.0
0.0000000000000000 0.0000000000000000 0.0
0.0000000000000000 0.0000000000000000 0.0
0.0000000000000000 0.0000000000000000 0.0
0.0000000000000000 0.0000000000000000 0.0
0.0000000000000000 0.0000000000000000 0.0
0.0000000000000000 0.0000000000000000 0.0
0.0000000000000000 0.0000000000000000 0.0
0.0000000000000000 0.0000000000000000 0.0
0.0000000000000000 0.0000000000000000 0.0
0.0000000000000000 0.0000000000000000 0.0
0.0000000000000000 0.0000000000000000 0.0
0.0000000000000000 0.0000000000000000 0.0
0.0000000000000000 0.0000000000000000 0.0
0.0000000000000000 0.0000000000000000 0.0
0.0000000000000000 0.0000000000000000 0.0
0.0000000000000000 0.0000000000000000 0.0
0.0000000000000000 0.0000000000000000 0.0
0.0000000000000000 0.0000000000000000 0.0
0.0000000000000000 0.0000000000000000 0.0
0.0000000000000000 0.0000000000000000 0.0
0.0000000000000000 0.0000000000000000 0.0
0.0000000000000000 0.0000000000000000 0.0
0.0000000000000000 0.0000000000000000 0.0
1.0000000000000000 0.0000000000000000 0.0
1.0000000000000000 0.0000000000000000 0.0
1.0000000000000000 0.0000000000000000 0.0
1.0000000000000000 0.0000000000000000 0.0
0.0000000000000000 0.0000000000000000 0.0
0.0000000000000000 0.0000000000000000 0.0
0.0000000000000000 0.0000000000000000 0.0
0.0000000000000000 0.0000000000000000 0.0
0.0000000000000000 0.0000000000000000 0.0
0.0000000000000000 0.0000000000000000 0.0
0.0000000000000000 0.0000000000000000 0.0
0.0000000000000000 0.0000000000000000 0.0
0.0000000000000000 0.0000000000000000 0.0
0.0000000000000000 0.0000000000000000 0.0
0.0000000000000000 0.0000000000000000 0.0
0.0000000000000000 0.0000000000000000 0.0
1.6063910945308226 -0.0150295555955196 0.0
1.6085191388399021 0.0123562440408903 0.0
1.6380541292042043 -0.0119689652404027 0.0
1.6351421937917587 -0.0165799961295079 0.0
1.3411874286336369 0.0853223659525943 0.0
1.3671126345464852 0.0644506153918207 0.0
1.4121065982561443 -0.1093714358253188 0.0
1.3876872187754017 -0.1339379333193212 0.0
1.6120075415971735 0.0002350530996217 0.0
1.6114923606325389 -0.0091995821186084 0.0
1.5577971125709080 0.0059844396145645 0.0
1.5569806207081833 -0.0008323570641516 0.0
1.5732082603420923 -0.0317943284839859 0.0
1.5732363889917509 0.0169003404574784 0.0
1.6564142130982014 0.0099936424927796 0.0
1.6530237625999953 -0.0173419285653384 0.0
1.3184130565892269 0.3229989155430155 0.0
1.3179425624766992 0.3160955818651156 0.0
1.3729191887626981 0.0238731499050614 0.0
1.3511045964518138 -0.2365077356039813 0.0
1.3729014869034761 0.0180289460971485 0.0
1.3505317600658922 -0.2415929251616528 0.0
1.5492230880129820 0.0140773899517355 0.0
1.5330437595043434 -0.0338403882693019 0.0
1.3407491698380325 0.0033802789973881 0.0
1.3437258586978664 0.0037784813062507 0.0
1.2621593813196403 0.0034921573090120 0.0
1.2556341335312735 0.0007625202523444 0.0
1.3045800045290936 -0.0067558893841035 0.0
1.2114669947306596 -0.0148284801873715 0.0
1.1810818321510359 0.0084432091832463 0.0
1.3274885483569705 0.0035613143671098 0.0
1.4606756080078533 0.1371516970622864 0.0
1.4610514307769151 0.1349826575593507 0.0
1.4397630305981395 -0.2783428965847108 0.0
1.4457156284371631 -0.2839230597352934 0.0
1.4430598028943988 0.3627499553579648 0.0
1.4385162281168875 0.3593237333822258 0.0
1.1801664878537381 -0.0288782177028856 0.0
1.3027659000284237 -0.0079861578891339 0.0
1.2941798617628550 -0.0179554263498951 0.0
1.1846415487007136 -0.0318357467069082 0.0
1.0752804065241002 -0.0681677654870338 0.0
1.0822658740906370 -0.0581972839119778 0.0
1.0920694608182053 0.0434440778536472 0.0
1.1032413865825932 0.0291629919577273 0.0
1.2560593027829550 0.0043634077058634 0.0
1.2397722839797478 -0.0206102791644711 0.0
1.2448227681621589 0.0198861701311664 0.0
1.2500494039065870 -0.0010143306607033 0.0
1.4407610541651503 -0.0316014383287680 0.0
1.3203621395539269 0.0525631857504241 0.0
1.4459463896136244 0.0343011098590328 0.0
1.3119462883516437 -0.0463143520990029 0.0
1.5779850204782087 -0.2305467627859979 0.0
1.5776992405287951 -0.2297744298822387 0.0
1.1554004053085596 -0.0548467204394161 0.0
1.1799104116299468 0.0590427133021116 0.0
1.1428284646614415 -0.0574257071099295 0.0
1.1883251753355033 0.0480555184460473 0.0
1.4285957016433131 0.0326063717801577 0.0
1.4397249494947006 -0.0301062504673712 0.0
1.2951631085558677 -0.1607887873482218 0.0
1.2810022665015872 0.1936553341537717 0.0
1.1906796914479418 0.0494434519328104 0.0
1.1381268759736802 -0.0054281926635693 0.0
1.1867891073003842 -0.0376308543882230 0.0
1.1536908770366110 0.0306335951750807 0.0
1.2894598023124886 0.0085816881750305 0.0
1.2969383288807719 -0.0147448339487489 0.0
1.1554836412464442 0.0378418230388642 0.0
1.2190002224339902 -0.0664080870791349 0.0
1.1573938532122310 0.0411638652433275 0.0
1.2168223759692873 -0.0648222470856456 0.0
1.1689080216811425 0.0696813719531289 0.0
1.1454590118670847 -0.0396290349840436 0.0
1.0984247225998951 -0.0578033758635500 0.0
1.2061975393453646 0.0510324995209648 0.0
1.1027907317198185 -0.0234169770179582 0.0
1.0961713732497791 0.0189866326069705 0.0
1.6159771439240729 0.0081560389143797 0.0
1.6186498752992704 -0.0002173177466232 0.0
1.4926805283812197 0.0308175136056771 0.0
1.5142190901831252 -0.0679861888185587 0.0
0.4708437122584223 -0.0145464281343002 0.0
0.4522795904790855 -0.0166276336575618 0.0
0.5687599377781543 0.1073743527075081 0.0
0.5884685635618496 0.1064372708608076 0.0
1.4649190595073962 0.4493381730013214 0.0
1.4602140417201142 0.4459174962992681 0.0
1.5452584093480271 -0.3620924468879336 0.0
1.5473913951368303 -0.3639009031138510 0.0
0.9926681484804253 0.0353287139043788 0.0
0.9934563712808707 0.0453584925137679 0.0
1.6130756279786387 0.0325000759235995 0.0
1.6050490397166064 -0.0438617963179371 0.0
1.1585739715680674 0.1959108826773285 0.0
1.1963327133308430 -0.2744719206205207 0.0
1.5366338205490828 -0.0545799993899789 0.0
1.5090505850669620 0.0093500774739485 0.0
0.7367164860974889 -0.0067947205339413 0.0
0.7585984476529540 0.0053320854816313 0.0
0.8902068497785668 -0.0169683870417507 0.0
0.9074910337603522 -0.0201516388680133 0.0
0.9229046375761928 0.0051109987213722 0.0
0.9077710479413335 0.0047078313684450 0.0
1.5787279339779252 -0.0265477647018140 0.0
1.5787713564189461 -0.0571582936575351 0.0
0.6634102997167393 -0.0832286804138898 0.0
0.6608183495389127 -0.0838983408797451 0.0
0.7111680725180434 0.0635280901847015 0.0
0.7089755690923972 0.0622643653735433 0.0
1.4963960480747958 0.0498392319110447 0.0
1.4970099191984376 0.0321015787457046 0.0
0.8987720435122799 -0.1261544165826152 0.0
0.8993084222095040 -0.1295030074304244 0.0
1.3578060686329092 0.0009451139590915 0.0
1.2764953942691484 0.0145525700071876 0.0
1.0039513968635378 -0.0949584705337855 0.0
1.0042879385294119 -0.0947639918516576 0.0
1.5186767330263149 -0.0264104035910084 0.0
1.5228304873602050 -0.0286372333128166 0.0
1.4890045036922650 0.0363190784122085 0.0
1.4915910989589192 0.0434765756408459 0.0
0.7491349630108625 -0.0087122772019205 0.0
0.7532155409604490 -0.0068893231344874 0.0
0.7035925042741319 0.0221010074968734 0.0
0.6926461602472229 0.0201846107064337 0.0
0.8169422510283170 0.0369217495662298 0.0
0.8406353643371290 -0.0645349387191603 0.0
0.7451917848173621 0.0913800962946273 0.0
0.7478646090861601 0.0883893218377632 0.0
1.5783458368490446 -0.0105691517544246 0.0
1.5883529702253556 0.0054336141907678 0.0
1.5947287718728409 -0.0079583595863577 0.0
1.5958449039277112 -0.0053412027240879 0.0
0.7017280886532915 -0.0034532778750357 0.0
0.7263483203081946 0.0265970297745887 0.0
0.7057856867259130 -0.0128458344125997 0.0
0.7052372325682019 0.0194849075544484 0.0
1.6270740594094266 -0.0026219179526759 0.0
1.6301541819998164 -0.0436463073549571 0.0
1.5219747757671012 -0.0084236938454764 0.0
1.5235119196270015 -0.0131782673655555 0.0
0.7146375094498884 -0.0107104403164560 0.0
0.6380848798903848 0.0177369462338797 0.0
0.6512231085066631 -0.0201182242569870 0.0
0.6956522970009213 0.0086509963410969 0.0
0.8045736704007945 0.0295828748423893 0.0
0.7785216373651538 -0.0225782701060018 0.0
0.8086647180855185 0.0208460483525418 0.0
0.7931531127726303 -0.0275655433826483 0.0
1.4136738792712120 -0.0106160154642477 0.0
1.4386331219693886 0.0016871606737687 0.0
1.4162565013845532 -0.0008550710805513 0.0
1.4394156605594373 0.0091824193972628 0.0
1.5796610940098716 0.0008156150039213 0.0
1.5675841952515246 -0.0109660628672283 0.0
1.3111785215255616 0.0062387974782606 0.0
1.3573780589033873 -0.0268133651856411 0.0
1.4082150165878335 0.0020217321459451 0.0
1.4166045660602400 -0.0141206349527907 0.0
0.7202911750572439 -0.0170582994272612 0.0
0.6704993384277882 0.0187383827000465 0.0
0.7223983265581588 -0.0182802895274673 0.0
0.6716370233122112 0.0204821772037112 0.0
0.5553934972235416 -0.1180149081083528 0.0
0.5598789071161150 -0.1126862572059798 0.0
1.2858405942201236 0.1196261075970991 0.0
1.2850697211338702 0.1172645308921563 0.0
1.4217044861909871 -0.0171008304733926 0.0
1.3839910018811055 -0.0415652697131982 0.0
1.3873107193759915 0.0221053042940197 0.0
1.4234541512464007 -0.0032803150455438 0.0
0.7985070696606080 -0.0654384116579410 0.0
0.7976544763906299 0.0751780497399876 0.0
1.1256494717445664 -0.1595879488152359 0.0
1.1266858128762884 -0.1567829153371147 0.0
1.1276705997556296 0.2269370275747961 0.0
1.1229022121182204 0.2275923201882681 0.0
0.8467996913781511 -0.0429495319870272 0.0
0.8061594299488917 0.0487596749054221 0.0
0.8427165229928596 -0.0380424394093583 0.0
0.8116668244021952 0.0557978196704728 0.0
1.5548323461280622 -0.0100804863438463 0.0
1.5554008067371210 -0.0203671821822237 0.0
0.6852987806214039 -0.0212281020722763 0.0
0.7024897996935653 0.0035238675842876 0.0
0.6458574299241056 0.0250579201167840 0.0
0.7322051211608923 0.0423962411995338 0.0
0.6600748751423979 0.0020218058841333 0.0
0.6652710757424621 -0.0025482897293811 0.0
1.4080461122457191 -0.2137996788254662 0.0
1.4057222972811847 -0.2041239474938657 0.0
1.2658463625059220 0.2657003539548466 0.0
1.2671849366429522 0.2483446975484438 0.0
0.4734564450603155 -0.0511901088969687 0.0
0.4825080721974892 -0.0505170268496979 0.0
0.4790390514771372 0.0526400653524145 0.0
0.4886454316453098 0.0509973957574554 0.0
1.4013978472222106 -0.0056914484261518 0.0
1.4038018609705520 -0.0032374269348828 0.0
1.4334908486539135 -0.1618771419373734 0.0
1.4500470718251288 -0.1609852087516818 0.0
1.4500803070165740 0.1804562107348575 0.0
1.4298714202640570 0.1759363413129452 0.0
0.8532992411853295 0.0395181502300412 0.0
0.7429139671353302 -0.1088310460471682 0.0
0.8381624724541176 0.0516042692454250 0.0
0.7625455167467869 -0.0919905347063710 0.0
1.3980342234802141 -0.0449387959586008 0.0
1.3691154926552576 0.0515417705393245 0.0
1.3932975511888732 -0.0365377394097186 0.0
1.3721214354670774 0.0609995030882837 0.0
1.5104303709417453 0.0023613095789355 0.0
1.5090063127256688 -0.0312890898261497 0.0
0.6468651164488020 0.0023344647079309 0.0
0.6492090198317075 0.0042307672119883 0.0
1.3903204526052571 0.0807349980161144 0.0
1.4037201835830702 0.0528213144315036 0.0
1.5196615690573401 -0.0423731241797097 0.0
1.4950177825476354 0.0462509808135665 0.0
0.6970442068225925 0.0935396817185751 0.0
0.6839254929326360 0.1014795590734067 0.0
1.4634050741329196 -0.0289576426611423 0.0
1.4140123531643198 0.0354285271344247 0.0
1.4129867588985159 -0.0491482804749595 0.0
1.4633758386645441 0.0045205959404818 0.0
1.6340959452661805 0.0205269320907831 0.0
1.6474086334505260 -0.0277466725378758 0.0
0.5026429027118750 -0.0000098027318119 0.0
0.5006010216882426 0.0020057911315399 0.0
1.5293644004532401 -0.0329891506588415 0.0
1.5259879350785717 0.0323864913133792 0.0
0.9373815584591071 0.2269718992784282 0.0
0.9059790058856290 -0.2232050219727018 0.0
1.5229872257844996 -0.0163423623280788 0.0
1.5187765323488989 -0.0065317586626439 0.0
1.3074352808706140 0.0034284138919401 0.0
1.3530844876826582 -0.0280683220983399 0.0
1.3232629532926545 -0.0193069268601528 0.0
1.3284261211194537 -0.0169541799376478 0.0
1.2053304309428428 -0.1212706148272172 0.0
1.2053906079023988 -0.1211801748398717 0.0
1.5001267347481162 -0.0147227873074468 0.0
1.4494865701024906 -0.0066525150677272 0.0
1.4527154168407459 -0.0305587470534484 0.0
1.4407166135305520 0.0318920571444198 0.0
1.5074655052880066 -0.0211635075766924 0.0
1.4548829963597223 -0.0000172750789824 0.0
0.4283405132347782 0.0468721507525813 0.0
0.4310423748942354 0.0439039851683587 0.0
0.4240896905071125 -0.0308095850810961 0.0
0.4169062190045191 -0.0338114471069269 0.0
1.4352160439985762 -0.3337592680915343 0.0
1.4364354969797040 -0.3372238674814672 0.0
0.3968225032837261 0.0067372189324193 0.0
0.4060560707760729 -0.0109731007339643 0.0
1.5111568126487085 0.3302088143953204 0.0
1.5125405060573998 0.3246275941010029 0.0
0.5930284166871658 0.0993360710695241 0.0
0.5938191720845103 0.0981773540028009 0.0
1.5182453966624978 0.0239956738372576 0.0
1.5221195573982407 -0.0232555588943210 0.0
1.3285008872728243 -0.0152073938772790 0.0
1.3432364190518002 0.0128886831395850 0.0
1.4616836008414966 -0.3843489563011475 0.0
1.4571683000630751 -0.3791625470815302 0.0
1.3991682769744109 0.4905191433888441 0.0
1.4088964113234868 0.4883301645397818 0.0
1.5924970031620185 0.0114588774493995 0.0
1.5893340929020874 0.0137680147473739 0.0
0.4855016023991435 0.0540460491610404 0.0
0.4636589019584448 -0.0607877843684952 0.0
0.4780300825282410 0.0583074261332595 0.0
0.4741884691170748 -0.0569036732567586 0.0
0.3810831320365832 0.0284442931533236 0.0
0.4030104863954005 0.0285432759861285 0.0
0.4148363812468913 -0.0154162245872390 0.0
0.4378761371129993 -0.0166457977138929 0.0
1.2554349465012786 -0.2071188495620672 0.0
1.2734083195635595 -0.2095606020353489 0.0
1.2813751490212728 0.2847460124969429 0.0
1.2644833656305243 0.2826322973293304 0.0
1.2074244410285764 -0.2716508568604706 0.0
1.1809218936510542 0.2659728876771248 0.0
1.4520635593714257 0.0018265907978083 0.0
1.4591712127927903 0.0168021729426045 0.0
0.5093499058846365 -0.0093781140050123 0.0
0.4832937495191416 -0.0005568195144571 0.0
0.5207468190553406 0.0145149504773060 0.0
0.4979213544014235 0.0044977744962657 0.0
1.4874928708334800 -0.0231628087832566 0.0
1.4748618264905391 0.0047953062089812 0.0
1.3355638523401521 -0.0267444892729539 0.0
1.3356876641644528 -0.0235738411427277 0.0
0.8718803731313888 0.2643906526040324 0.0
0.9351829431695357 -0.2433837586919352 0.0
1.0382541785705257 0.0723027120889259 0.0
1.0461675677207889 0.0784321457000370 0.0
1.0546922678126303 -0.0949959306057290 0.0
1.0570134946730929 -0.0979005785561805 0.0
0.6354621279837948 -0.1341648418413804 0.0
0.6495821218858802 0.1423412164737205 0.0
0.2842715976423684 -0.0237749554122220 0.0
0.2877464025310489 -0.0232389422568467 0.0
0.2940870364577665 -0.0109757597719574 0.0
0.2924811397084706 -0.0110305678907024 0.0
0.3558046960937560 -0.0115843015476719 0.0
0.3553880672885802 0.0117475174972044 0.0
1.2240186440222205 0.3286473045113005 0.0
1.1734868392402473 -0.2645005146109771 0.0
0.5060194043772317 -0.0602759123752152 0.0
0.4940613065968258 0.0720395476364270 0.0
0.5057798201570602 -0.0594982791731156 0.0
0.4947970235572094 0.0739042754456971 0.0
1.4849210475112911 0.0478811962404071 0.0
1.4961726223581122 -0.0608937297416182 0.0
0.4519742190930377 0.0758216077809692 0.0
0.5224951066915898 -0.1242413738991750 0.0
0.9607653085691832 0.0644131687747703 0.0
0.9571516872527182 0.0626923789655764 0.0
0.9858072606904650 -0.0613992613344253 0.0
0.9865877296353919 -0.0616756440391447 0.0
0.8782180933555572 0.0310529535507636 0.0
0.8787744893164696 0.0399482180846497 0.0
0.5327380940905678 0.0441230584234963 0.0
0.5068616561740376 -0.0573271115259044 0.0
0.5300459895224930 0.0425498257062810 0.0
0.5053344363593807 -0.0576689111882788 0.0
1.5448487256245191 -0.0062562481784677 0.0
1.5403646618320497 -0.0034278183242605 0.0
0.4238763424851288 -0.0720656684586119 0.0
0.4746073197468165 0.0498745008246806 0.0
0.4585626553624899 0.0611720863336577 0.0
0.4445403778283747 -0.0607797772792474 0.0
1.0052112420539412 0.0416426333376571 0.0
1.0424794982309087 0.0430254182833697 0.0
1.0738157050070487 -0.0564647976753513 0.0
1.0469327115332998 -0.0607370554379259 0.0
1.3115252232491454 0.0217301834394985 0.0
1.3098751243360764 0.0283344563110029 0.0
1.3541674746217252 -0.0674987472499435 0.0
1.3692028535425009 -0.0391120702780487 0.0
1.0534369046009495 -0.1260623654283322 0.0
1.0475771223918435 -0.1333520800416032 0.0
0.5283021180128887 -0.0013178267243839 0.0
0.5302654144707898 0.0081508786076496 0.0
0.5364320324212702 0.0041216895432952 0.0
0.5196809126084029 -0.0061877234625641 0.0