# vtk DataFile Version 3.0
LucasCarvalhoTCC Results
ASCII

DATASET POLYDATA
FIELD FieldData 1
TIME 1 1 double
0.4

POINTS 494 float
0.0 0.0 0.0
8.0 0.0 0.0
8.0 1.0 0.0
0.0 1.0 0.0
4.0 0.0 0.0
4.0 1.0 0.0
4.0 0.35 0.0
4.0 0.65 0.0
0.2010296266416496 1.0 0.0
0.3986915135488555 1.0 0.0
0.5930420631591132 1.0 0.0
0.7841367769318693 1.0 0.0
0.9720301907499852 1.0 0.0
1.156775924166146 1.0 0.0
1.33842670621592 1.0 0.0
1.517034389070868 1.0 0.0
1.69264994674003 1.0 0.0
1.865323550794866 1.0 0.0
2.035104414722059 1.0 0.0
2.202040983487818 1.0 0.0
2.366180993436638 1.0 0.0
2.527571282866703 1.0 0.0
2.686257831390245 1.0 0.0
2.842286022819771 1.0 0.0
2.995700353514032 1.0 0.0
3.146544637914273 1.0 0.0
3.294861880721452 1.0 0.0
3.440694398353104 1.0 0.0
3.58408394609007 1.0 0.0
3.725071294102791 1.0 0.0
3.863696788294668 1.0 0.0
4.136303211705004 1.0 0.0
4.274928705896546 1.0 0.0
4.415916053908917 1.0 0.0
4.55930560164552 1.0 0.0
4.7051381192768 1.0 0.0
4.853455362083593 1.0 0.0
5.004299646483437 1.0 0.0
5.157713977177285 1.0 0.0
5.313742168606385 1.0 0.0
5.472428717129489 1.0 0.0
5.6338190065591 1.0 0.0
5.797959016507455 1.0 0.0
5.96489558527273 1.0 0.0
6.134676449200184 1.0 0.0
6.307350053255487 1.0 0.0
6.482965610925135 1.0 0.0
6.661573293780584 1.0 0.0
6.843224075830887 1.0 0.0
7.027969809247587 1.0 0.0
7.215863223066262 1.0 0.0
7.4069579368396 1.0 0.0
7.601308486450315 1.0 0.0
7.798970373357896 1.0 0.0
8.0 0.7999999999999996 0.0
8.0 0.6000000000013874 0.0
8.0 0.4000000000016649 0.0
8.0 0.2000000000008324 0.0
7.798970373357898 0.0 0.0
7.601308486450317 0.0 0.0
7.406957936839601 0.0 0.0
7.215863223066265 0.0 0.0
7.02796980924759 0.0 0.0
6.843224075830888 0.0 0.0
6.661573293780592 0.0 0.0
6.482965610925139 0.0 0.0
6.307350053255492 0.0 0.0
6.134676449200188 0.0 0.0
5.964895585272735 0.0 0.0
5.797959016507459 0.0 0.0
5.633819006559103 0.0 0.0
5.472428717129493 0.0 0.0
5.313742168606389 0.0 0.0
5.157713977177288 0.0 0.0
5.004299646483441 0.0 0.0
4.853455362083597 0.0 0.0
4.705138119276803 0.0 0.0
4.559305601645523 0.0 0.0
4.415916053908919 0.0 0.0
4.274928705896549 0.0 0.0
4.136303211705007 0.0 0.0
3.863696788294383 0.0 0.0
3.725071294102209 0.0 0.0
3.584083946089184 0.0 0.0
3.440694398352564 0.0 0.0
3.29486188072223 0.0 0.0
3.146544637916415 0.0 0.0
2.995700353517581 0.0 0.0
2.842286022824779 0.0 0.0
2.68625783139676 0.0 0.0
2.527571282874774 0.0 0.0
2.366180993446318 0.0 0.0
2.202040983499156 0.0 0.0
2.035104414735112 0.0 0.0
1.865323550807426 0.0 0.0
1.692649946751479 0.0 0.0
1.517034389081164 0.0 0.0
1.338426706225015 0.0 0.0
1.156775924174005 0.0 0.0
0.9720301907565596 0.0 0.0
0.784136776937109 0.0 0.0
0.5930420631629705 0.0 0.0
0.3986915135514271 0.0 0.0
0.2010296266429896 0.0 0.0
0.0 0.199999999999558 0.0
0.0 0.3999999999989746 0.0
0.0 0.5999999999989464 0.0
0.0 0.7999999999994731 0.0
4.065082561150232 0.3648546699507293 0.0
4.117274722996153 0.4064765305061043 0.0
4.146239186965635 0.4666218605127571 0.0
4.146239186588658 0.5333781411388893 0.0
4.117274722147235 0.5935234705584039 0.0
4.065082560620447 0.6351453303044018 0.0
3.934917439190226 0.6351453302132268 0.0
3.882725277520537 0.5935234701418048 0.0
3.853760813071839 0.5333781396514286 0.0
3.853760813263242 0.4666218595099774 0.0
3.882725277782338 0.4064765295299076 0.0
3.934917439246251 0.3648546697597932 0.0
3.348071016817302 0.5037366844559412 0.0
4.65817771841185 0.4813089492125461 0.0
5.148432135339639 0.5000000000000013 0.0
2.851567863014233 0.5000000000000465 0.0
4.406326506211093 0.3072680842959042 0.0
3.575604791543614 0.6706702532911111 0.0
4.424395205595821 0.6706702556565258 0.0
3.593673497058965 0.3072680820819204 0.0
5.648652107845511 0.5000000000000006 0.0
2.351347890458042 0.4999999999998563 0.0
1.851146954963573 0.4999999999998219 0.0
6.148853043290459 0.4999999999999989 0.0
6.65089532386231 0.5241211434250735 0.0
1.349104674975677 0.4758788558671475 0.0
7.150713697794147 0.4858064203922342 0.0
0.8492863006035025 0.4858064203396458 0.0
4.216343713145164 0.2287135668575249 0.0
3.7836562881134 0.7712864338025908 0.0
4.346988371127422 0.5000000019594898 0.0
4.213775907987267 0.7756803165215952 0.0
3.653011628408684 0.4999999990051173 0.0
3.786224091202296 0.224319683220954 0.0
7.572712389010231 0.5763628491757339 0.0
0.4272876103144935 0.5763628498169726 0.0
4.881741322202974 0.3185523670790996 0.0
3.118258676783759 0.6814476337404539 0.0
3.126854924363118 0.2792890251323842 0.0
4.873145074373641 0.7207109754187309 0.0
5.398381996912613 0.291094588046412 0.0
5.396092528392672 0.7230702977293901 0.0
2.603907471650227 0.7230702981371074 0.0
2.601618001742297 0.2910945873520305 0.0
4.065645388412852 0.1903894420877926 0.0
3.934354612281609 0.8096105573695707 0.0
4.268393145079946 0.6292513280674802 0.0
3.731606853978594 0.3707486723017213 0.0
4.265062587797852 0.3723525870906427 0.0
3.734937412407246 0.6276474138958879 0.0
5.89991820844496 0.720584760457478 0.0
5.899661142431216 0.2940789491313893 0.0
2.100338856207466 0.7059210507243335 0.0
2.100081790085733 0.2794152396968363 0.0
4.648216390708278 0.2460745758417431 0.0
3.350865525112209 0.7519279174007294 0.0
3.351783614314077 0.2460745727859678 0.0
4.649134469923633 0.7519279206208029 0.0
6.386000070083336 0.2800687217561524 0.0
6.399946740387701 0.7091877900019353 0.0
1.613999929083956 0.7199312783619409 0.0
1.600053258667474 0.2908122092889953 0.0
1.099018086220021 0.3101534564461602 0.0
1.099018086220183 0.6898465435530818 0.0
6.900981912171285 0.3101534566801202 0.0
6.900981912171287 0.689846543319878 0.0
3.934891793257755 0.2336799984692873 0.0
4.065108206439434 0.7663200008196746 0.0
5.133077706310633 0.254681732561614 0.0
5.131620328745691 0.7509194919064351 0.0
2.866922291796803 0.7453182673725732 0.0
2.868379670398546 0.2490805081265555 0.0
0.5973224633027379 0.3123440263675117 0.0
7.402677535116692 0.3123440263206204 0.0
7.70928508668797 0.2984218335093966 0.0
0.2907149122204558 0.2984218350042115 0.0
2.359042531710287 0.2526358364218651 0.0
2.362552667743482 0.7498876177132479 0.0
5.640957467742433 0.2526358368965552 0.0
5.637447332034727 0.7498876177447886 0.0
7.330771635020911 0.7204300868765696 0.0
0.6692283641678903 0.7204300870263377 0.0
6.141991504218947 0.7500064293114952 0.0
6.143214654121697 0.2541610692540839 0.0
1.858008494097047 0.2499935706645152 0.0
1.856785344746094 0.7458389307817799 0.0
1.360037479834015 0.7503851535261052 0.0
1.363297687800482 0.2332108063209677 0.0
6.636702311691573 0.7667891933666813 0.0
6.639962519949044 0.2496148464378299 0.0
7.14328150074831 0.2292696686424185 0.0
0.8567184978980538 0.2292696684503961 0.0
4.845173759433459 0.5000000012080886 0.0
3.15482623877425 0.4999999993865263 0.0
3.514470413944982 0.5755907957035395 0.0
4.485529584365944 0.5755907996488695 0.0
4.350214515329574 0.8947484376274254 0.0
3.64978548377064 0.1052515623441257 0.0
4.356280753270322 0.1397878825788729 0.0
3.643719248073251 0.8602121180766233 0.0
4.157657982820168 0.3023031440803671 0.0
3.842342017851872 0.6976968563131654 0.0
4.149794964153143 0.6947625877680722 0.0
3.850205035403508 0.3052374120341299 0.0
4.252863769441745 0.5000000013253333 0.0
3.747136230269581 0.4999999993774377 0.0
2.66150837620265 0.4835883053501762 0.0
5.338491622258749 0.4835883052760253 0.0
7.732076714471282 0.7613785341653052 0.0
0.267923285219987 0.7613785345749642 0.0
3.482582425594127 0.3988584940714734 0.0
4.517417574829351 0.3988584973195787 0.0
7.120961454429095 0.7969630876933931 0.0
0.8790385446795201 0.7969630878928393 0.0
4.524178509919695 0.1937066442020419 0.0
3.472973035782958 0.803602443762734 0.0
4.527026959328886 0.8036024455277256 0.0
3.475821495314308 0.1937066425220846 0.0
5.834485749168302 0.4775259269822466 0.0
2.16551424934095 0.5224740729963462 0.0
4.803832126993392 0.8343163881584211 0.0
3.196167871756218 0.1656836120733276 0.0
3.196167870279283 0.834316388182051 0.0
4.803832130306974 0.1656836112805605 0.0
1.646902821176459 0.5088844228822333 0.0
6.35309717778631 0.4911155766888507 0.0
4.128745436683365 0.8608937921704661 0.0
3.871254562700506 0.1391062074145501 0.0
7.783519314041498 0.4824599318584197 0.0
0.2164806854160975 0.4824599323519634 0.0
3.981228286637499 0.1341601386487245 0.0
4.018771713398118 0.8658398609794804 0.0
4.757705393330306 0.6277793253200102 0.0
3.245404476813698 0.3720431195654205 0.0
3.262406961538709 0.609092082228193 0.0
4.738552632749474 0.3854106153034425 0.0
4.980576921401999 0.1828043249223437 0.0
3.019423077460087 0.8171956749482756 0.0
4.975386875116307 0.8288560892267683 0.0
3.024613123995747 0.1711439108946455 0.0
7.537862127958827 0.7914398748884439 0.0
0.46213787149577 0.7914398749623154 0.0
4.150965283491015 0.1232311208167031 0.0
3.849034718225983 0.8767688792466098 0.0
0.6330166515036239 0.5212993800799176 0.0
7.366983347335347 0.5212993798709434 0.0
5.001451172914062 0.4591396125040952 0.0
2.998548825585332 0.5408603877155073 0.0
5.250532135494552 0.1623854812497458 0.0
5.24999687257574 0.8404382486850067 0.0
2.749794930508214 0.8396380739052673 0.0
2.749676059914328 0.161585306286623 0.0
1.150631951549359 0.5017906253149568 0.0
6.85747267660715 0.5137706215776152 0.0
2.938770240933895 0.3859183074771494 0.0
5.061229757952985 0.6140816927005173 0.0
5.521883200863776 0.8371838481144578 0.0
5.520780843451154 0.1567733764659754 0.0
2.479219155991939 0.1567733759623464 0.0
2.478116798894765 0.8371838481096507 0.0
2.208224060227917 0.1725929992863016 0.0
2.214655190115911 0.821187355218689 0.0
5.791775938918927 0.8274070011383262 0.0
5.785558009721889 0.1789659155514431 0.0
5.243140500145841 0.3651007420679131 0.0
5.247758683472709 0.6318228659349833 0.0
2.748336099792684 0.6332079670712092 0.0
2.766145970608876 0.3583112578457802 0.0
2.500794992947401 0.4517155340697119 0.0
5.499205006433885 0.4517155344186723 0.0
3.472119223331378 0.69283875816516 0.0
4.527880773131323 0.6928387614752662 0.0
2.445947440949104 0.6396216022327238 0.0
5.554052558509333 0.6396216019605415 0.0
1.976669571201813 0.1631348676957265 0.0
[...]
POINT_DATA 494

VECTORS Velocity float
0.0000000000000000 0.0000000000000000 0.0
0.8345527800228922 -0.1149867975790627 0.0
0.0000000000000000 0.0000000000000000 0.0
0.0000000000000000 0.0000000000000000 0.0
0.0000000000000000 0.0000000000000000 0.0
0.0000000000000000 0.0000000000000000 0.0
0.0000000000000000 0.0000000000000000 0.0
0.0000000000000000 0.0000000000000000 0.0
0.0000000000000000 0.0000000000000000 0.0
0.0000000000000000 0.0000000000000000 0.0
0.0000000000000000 0.0000000000000000 0.0
0.0000000000000000 0.0000000000000000 0.0
0.0000000000000000 0.0000000000000000 0.0
0.0000000000000000 0.0000000000000000 0.0
0.0000000000000000 0.0000000000000000 0.0
0.0000000000000000 0.0000000000000000 0.0
0.0000000000000000 0.0000000000000000 0.0
0.0000000000000000 0.0000000000000000 0.0
0.0000000000000000 0.0000000000000000 0.0
0.0000000000000000 0.0000000000000000 0.0
0.0000000000000000 0.0000000000000000 0.0
0.0000000000000000 0.0000000000000000 0.0
0.0000000000000000 0.0000000000000000 0.0
0.0000000000000000 0.0000000000000000 0.0
0.0000000000000000 0.0000000000000000 0.0
0.0000000000000000 0.0000000000000000 0.0
0.0000000000000000 0.0000000000000000 0.0
0.0000000000000000 0.0000000000000000 0.0
0.0000000000000000 0.0000000000000000 0.0
0.0000000000000000 0.0000000000000000 0.0
0.0000000000000000 0.0000000000000000 0.0
0.0000000000000000 0.0000000000000000 0.0
0.0000000000000000 0.0000000000000000 0.0
0.0000000000000000 0.0000000000000000 0.0
0.0000000000000000 0.0000000000000000 0.0
0.0000000000000000 0.0000000000000000 0.0
0.0000000000000000 0.0000000000000000 0.0
0.0000000000000000 0.0000000000000000 0.0
0.0000000000000000 0.0000000000000000 0.0
0.0000000000000000 0.0000000000000000 0.0
0.0000000000000000 0.0000000000000000 0.0
0.0000000000000000 0.0000000000000000 0.0
0.0000000000000000 0.0000000000000000 0.0
0.0000000000000000 0.0000000000000000 0.0
0.0000000000000000 0.0000000000000000 0.0
0.0000000000000000 0.0000000000000000 0.0
0.0000000000000000 0.0000000000000000 0.0
0.0000000000000000 0.0000000000000000 0.0
0.0000000000000000 0.0000000000000000 0.0
0.0000000000000000 0.0000000000000000 0.0
0.0000000000000000 0.0000000000000000 0.0
0.0000000000000000 0.0000000000000000 0.0
0.0000000000000000 0.0000000000000000 0.0
0.0000000000000000 0.0000000000000000 0.0
1.0921853196641547 0.4488673503711522 0.0
0.9875102986830383 0.0846518171016988 0.0
0.9763793242796124 -0.0539215041307091 0.0
1.0635282703276070 -0.3719526218689902 0.0
0.0000000000000000 0.0000000000000000 0.0
0.0000000000000000 0.0000000000000000 0.0
0.0000000000000000 0.0000000000000000 0.0
0.0000000000000000 0.0000000000000000 0.0
0.0000000000000000 0.0000000000000000 0.0
0.0000000000000000 0.0000000000000000 0.0
0.0000000000000000 0.0000000000000000 0.0
0.0000000000000000 0.0000000000000000 0.0
0.0000000000000000 0.0000000000000000 0.0
0.0000000000000000 0.0000000000000000 0.0
0.0000000000000000 0.0000000000000000 0.0
0.0000000000000000 0.0000000000000000 0.0
0.0000000000000000 0.0000000000000000 0.0
0.0000000000000000 0.0000000000000000 0.0
0.0000000000000000 0.0000000000000000 0.0
0.0000000000000000 0.0000000000000000 0.0
0.0000000000000000 0.0000000000000000 0.0
0.0000000000000000 0.0000000000000000 0.0
0.0000000000000000 0.0000000000000000 0.0
0.0000000000000000 0.0000000000000000 0.0
0.0000000000000000 0.0000000000000000 0.0
0.0000000000000000 0.0000000000000000 0.0
0.0000000000000000 0.0000000000000000 0.0
0.0000000000000000 0.0000000000000000 0.0
0.0000000000000000 0.0000000000000000 0.0
0.0000000000000000 0.0000000000000000 0.0
0.0000000000000000 0.0000000000000000 0.0
0.0000000000000000 0.0000000000000000 0.0
0.0000000000000000 0.0000000000000000 0.0
0.0000000000000000 0.0000000000000000 0.0
0.0000000000000000 0.0000000000000000 0.0
0.0000000000000000 0.0000000000000000 0.0
0.0000000000000000 0.0000000000000000 0.0
0.0000000000000000 0.0000000000000000 0.0
0.0000000000000000 0.0000000000000000 0.0
0.0000000000000000 0.0000000000000000 0.0
0.0000000000000000 0.0000000000000000 0.0
0.0000000000000000 0.0000000000000000 0.0
0.0000000000000000 0.0000000000000000 0.0
0.0000000000000000 0.0000000000000000 0.0
0.0000000000000000 0.0000000000000000 0.0
0.0000000000000000 0.0000000000000000 0.0
0.0000000000000000 0.0000000000000000 0.0
0.0000000000000000 0.0000000000000000 0.0
0.0000000000000000 0.0000000000000000 0.0
0.0000000000000000 0.0000000000000000 0.0
1.0000000000000000 0.0000000000000000 0.0
1.0000000000000000 0.0000000000000000 0.0
1.0000000000000000 0.0000000000000000 0.0
1.0000000000000000 0.0000000000000000 0.0
0.0000000000000000 0.0000000000000000 0.0
0.0000000000000000 0.0000000000000000 0.0
0.0000000000000000 0.0000000000000000 0.0
0.0000000000000000 0.0000000000000000 0.0
0.0000000000000000 0.0000000000000000 0.0
0.0000000000000000 0.0000000000000000 0.0
0.0000000000000000 0.0000000000000000 0.0
0.0000000000000000 0.0000000000000000 0.0
0.0000000000000000 0.0000000000000000 0.0
0.0000000000000000 0.0000000000000000 0.0
0.0000000000000000 0.0000000000000000 0.0
0.0000000000000000 0.0000000000000000 0.0
1.2448999522630830 0.0010897305029062 0.0
1.2457480785150117 0.0017170683976600 0.0
1.3260651480394108 -0.0041841071915389 0.0
1.3266705416128375 -0.0005912557848254 0.0
1.2738612518948798 0.0030793715167496 0.0
1.2612918134206512 0.0167092695268617 0.0
1.2459635661194437 -0.0534318270536264 0.0
1.2539310363324467 -0.0504445559775904 0.0
1.3277332722790929 0.0071142095604858 0.0
1.3262756400915541 -0.0115520180589166 0.0
1.3206862903191212 0.0093381392211966 0.0
1.3198477622716192 0.0074586764207328 0.0
1.3438236650191344 -0.0083620559569636 0.0
1.3461018823594679 -0.0013362956282026 0.0
1.3955287109928025 0.0072722506999814 0.0
1.3938968526308391 -0.0133292042751907 0.0
1.3643352956607953 0.1535232493021742 0.0
1.3589174175283869 0.1582620019591080 0.0
1.1454817101142951 0.0049696007850139 0.0
1.3830865550673970 -0.1135884655292962 0.0
1.1461629844453625 0.0094409352147213 0.0
1.3885696100857341 -0.1095068896362672 0.0
1.4093745724121785 0.0161866446095875 0.0
1.4058535936356660 -0.0260785336005408 0.0
1.3035209498553106 0.0168484463943322 0.0
1.2932704231579377 0.0166256874281417 0.0
1.3071770338283806 -0.0070997399163763 0.0
1.2949153760853604 -0.0056194092215555 0.0
1.3297809742937181 0.0019519077668440 0.0
1.3023635506565650 -0.0078691030720416 0.0
1.2952232668710368 0.0056043011778849 0.0
1.3347137361322006 -0.0037634932662997 0.0
1.4503301724889777 0.1092823186317578 0.0
1.4494491511960632 0.1097186166999912 0.0
1.2197271743913878 -0.1550687986377748 0.0
1.2188297067990737 -0.1480941998674997 0.0
1.2724527143061770 0.1824485992889717 0.0
1.2717499897316240 0.1932371908835287 0.0
1.2687679893946830 -0.0318158132875905 0.0
1.3046733581518777 0.0132639682856767 0.0
1.2932037065789415 0.0139960676400861 0.0
1.2812701679413674 -0.0304525512959592 0.0
1.2098630271654878 -0.0154004597532073 0.0
1.1961623816574913 -0.0127223998770043 0.0
1.2194908290643740 0.0016833807889188 0.0
1.2056083200637246 -0.0024957253191749 0.0
1.2608073368369639 0.0017498550485421 0.0
1.2319818742297679 -0.0065300320821949 0.0
1.2479332418360241 0.0045157713552772 0.0
1.2439025157142836 -0.0029895317922382 0.0
1.3991869026621704 0.0004675984364100 0.0
1.3448126993000220 0.0462788612447333 0.0
1.3968152442643045 -0.0015614207572780 0.0
1.3468036805948009 -0.0467900232539960 0.0
1.5238880170092133 -0.1457848183691236 0.0
1.5234205312022491 -0.1477082621011863 0.0
1.2764260565817320 0.0057860563996198 0.0
1.2754753504309666 -0.0101246999055867 0.0
1.2650875376982262 -0.0004163917069026 0.0
1.2851349125751428 -0.0176115211259720 0.0
1.3979013405107277 -0.0125241234598726 0.0
1.4022189378520857 0.0103227939849726 0.0
1.2923824595239777 -0.1306644977408849 0.0
1.2942187032903871 0.1399916479419949 0.0
1.2899674488272794 0.0389942981231310 0.0
1.2660258422091757 -0.0191117069388924 0.0
1.2838904079207150 -0.0291872944150706 0.0
1.2728935222707709 0.0326634633906781 0.0
1.3008019879942481 -0.0029438434408400 0.0
1.3013810571465767 -0.0007894491089511 0.0
1.2616310047242496 0.0408190533971332 0.0
1.2882885668285422 -0.0424081426137638 0.0
1.2752634877862936 0.0423186567566466 0.0
1.2750457533709996 -0.0414901219934746 0.0
1.2618903432725945 0.0577668643409400 0.0
1.2564098728912916 -0.0552501089257031 0.0
1.2415467899515700 -0.0646687287545064 0.0
1.2767691306715632 0.0502894401307792 0.0
1.2452646366470637 -0.0102301505952271 0.0
1.2456761086506525 0.0075356272189706 0.0
1.2840566813239367 0.0090682109760277 0.0
1.2827269209227328 0.0080506811960028 0.0
1.2175531508987341 0.0241730670778223 0.0
1.2138805784516742 -0.0219289849687296 0.0
0.6762053844613023 -0.0031746826299334 0.0
0.6682553035364867 -0.0018615366734096 0.0
0.7662573494875092 0.0789431599482733 0.0
0.7721001234838392 0.0793903021072823 0.0
1.3583515524670597 0.3068412830403217 0.0
1.3596692081262209 0.3116507343562602 0.0
1.3962873823422306 -0.2388622898345393 0.0
1.3940850541627279 -0.2342774251195333 0.0
0.9543710273310626 0.0002549233748729 0.0
0.9547469517737215 0.0160982609168539 0.0
1.3510033676923705 0.0036775691869674 0.0
1.3499092142615883 -0.0075721100748561 0.0
1.2275636232555949 0.1643972343705494 0.0
1.2363654072969941 -0.2166147084172028 0.0
1.2222120277609176 -0.0142031864472666 0.0
1.2253914582851135 0.0106637440698108 0.0
0.8644272067901801 -0.0021076679663053 0.0
0.8729629460251612 0.0003538599684221 0.0
1.1629571433023693 -0.0060105975922765 0.0
1.1505320157843835 -0.0132296103350897 0.0
1.1593473863131971 -0.0094529271647986 0.0
1.1746622156970561 -0.0135413947813594 0.0
1.3337537935631019 -0.0058357623016389 0.0
1.3317183735350999 -0.0053944281372144 0.0
0.8639432574832656 -0.0723732967180082 0.0
0.8743955440609545 -0.0717186394108121 0.0
0.8996158772677620 0.0657046123433982 0.0
0.9104715452199021 0.0646109046289364 0.0
1.3148722342792134 0.0076361616488165 0.0
1.3153002786003605 0.0056804350580984 0.0
0.9792398885589354 -0.0627051733891155 0.0
0.9826092958062497 -0.0633957763667533 0.0
1.2299087860912279 -0.0021272847672610 0.0
1.1965249617790306 0.0114410328221878 0.0
1.0301814376436158 -0.0566768588397695 0.0
1.0291771716685845 -0.0567060654144041 0.0
1.2867189827239567 -0.0254456751179105 0.0
1.2962620216826946 -0.0270300775473619 0.0
1.2726775015450458 0.0348938699164491 0.0
1.2797948093355394 0.0374083837935994 0.0
0.9431594778867649 0.0010045130511137 0.0
0.9337378117693401 0.0009735259753816 0.0
0.8980483669383377 0.0064611978543657 0.0
0.9030505938042386 0.0058163366405433 0.0
0.9047302955081882 0.0203995165925442 0.0
0.9147128740983067 -0.0317016306271724 0.0
0.8252848599237115 0.0396198261855188 0.0
0.8230734696391183 0.0397339183666241 0.0
1.3718443518105690 -0.0160891970077703 0.0
1.3749276456754269 0.0104575830440474 0.0
1.3000819270156458 -0.0081435530909975 0.0
1.2980146330342608 -0.0101442143223336 0.0
0.8489176122748653 0.0035490382813063 0.0
0.8490511991675644 0.0050297282320951 0.0
0.8426879567678438 -0.0010328771665533 0.0
0.8482881661517974 0.0016294233765108 0.0
1.3846142552115803 0.0071845129684594 0.0
1.3866489933284902 -0.0286176636169628 0.0
1.2972176223337546 -0.0307321613005858 0.0
1.2887213130612962 -0.0273794671161131 0.0
0.8353599231502240 -0.0091667246447215 0.0
0.7866796911068320 0.0121657139385294 0.0
0.7918242078029709 -0.0128300661971892 0.0
0.8292279528135054 0.0082404670879705 0.0
0.9299372854244008 0.0240431954682613 0.0
0.9139824380272654 -0.0188107443682644 0.0
0.9265681357196686 0.0201969272419165 0.0
0.9248780914899798 -0.0225706342294943 0.0
1.3384932437367878 0.0244478442947211 0.0
1.3246743518920803 -0.0176529574249958 0.0
1.3223320172402186 0.0131050206132230 0.0
1.3390130328883092 -0.0288026075461753 0.0
1.3425304897232981 0.0165767236503547 0.0
1.3409134509999887 -0.0175598821284849 0.0
1.2542647150174655 0.0202693717168364 0.0
1.2530649906940907 -0.0330734228271867 0.0
1.3214769930088337 -0.0063192390063900 0.0
1.3211530373087257 0.0056267295164041 0.0
0.8496871695417444 -0.0175731287513160 0.0
0.7925239992760074 0.0220428376324285 0.0
0.8412178965785895 -0.0180387998292292 0.0
0.8015885605805287 0.0224233112635882 0.0
0.7117790203078399 -0.0974309734683799 0.0
0.7097426407178489 -0.0938032506886814 0.0
1.2367900563918217 0.0841952531626467 0.0
1.2385608758351656 0.0857088044776148 0.0
1.3077342129369316 -0.0071398168383704 0.0
1.2934753681941897 -0.0051067264106728 0.0
1.2881936988392455 0.0078163512530864 0.0
1.3171187253483883 0.0116607599281445 0.0
0.8759070235623915 -0.0462233325753535 0.0
0.8717710602170697 0.0427760668054936 0.0
1.0409435769703956 -0.1003065568446344 0.0
1.0366290726545015 -0.0886562400807140 0.0
1.0508559988186186 0.1105123725409431 0.0
1.0525512617619970 0.1203057291258113 0.0
0.9387632912955540 -0.0332028002364582 0.0
0.9261185031934179 0.0484983391653938 0.0
0.9275422596568037 -0.0310974728295450 0.0
0.9376296773214324 0.0509782593051073 0.0
1.3336229761097387 -0.0135868119714027 0.0
1.3310088296291949 -0.0139495651048188 0.0
0.8060962213991062 -0.0191836112866704 0.0
0.8269774887877240 -0.0007604877198231 0.0
0.7959325648327126 0.0129878590836039 0.0
0.8326164818381737 0.0277043596320970 0.0
0.7878477150725434 -0.0114693994314405 0.0
0.7891735516720714 0.0096148505190086 0.0
1.2879598123596687 -0.0923081200012545 0.0
1.2810083283218034 -0.0970807298324744 0.0
1.3150824501667753 0.1299213939796238 0.0
1.3064300760769294 0.1274708562772921 0.0
0.6933538964427960 -0.0432719343000509 0.0
0.6886711356671846 -0.0442157879511482 0.0
0.7030915976580704 0.0416906832902467 0.0
0.6997941450449455 0.0412928544483952 0.0
1.3216138810263311 0.0031823421457664 0.0
1.3312753659082077 0.0048133458940654 0.0
1.1814458347543650 -0.0639971887248569 0.0
1.1863917963670556 -0.0629746366966534 0.0
1.2266569017527409 0.0597898199114412 0.0
1.2238206327210404 0.0635205643069974 0.0
0.9478467315330956 0.0328242286245126 0.0
0.8868088444902561 -0.0780870315365993 0.0
0.9361778399901588 0.0376761221623762 0.0
0.8996466914128860 -0.0726682945922343 0.0
1.3019617073335554 -0.0087923215376040 0.0
1.2804078638116883 0.0133001842059329 0.0
1.2923054217029430 -0.0075550084396993 0.0
1.2891963908232742 0.0144637264879848 0.0
1.3188538178501581 0.0025344275147486 0.0
1.3154370469509702 -0.0004705478495105 0.0
0.7808818015689297 -0.0096421139763624 0.0
0.7881076736756584 0.0122723037689821 0.0
1.2912226865163028 0.0281516885621571 0.0
1.2978315989333284 0.0253962488446924 0.0
1.3919953412222452 -0.0331067936128653 0.0
1.3864112520848897 0.0267176246086786 0.0
0.8474116003432405 0.0410089891631162 0.0
0.8475409614777066 0.0429715473892450 0.0
1.3492167865126421 -0.0429016962404496 0.0
1.3374363143068164 0.0352367986583372 0.0
1.3400988723949812 -0.0498512887479187 0.0
1.3466373037018029 0.0259303106519319 0.0
1.3908571507326259 -0.0285174693778838 0.0
1.3980584653288675 0.0236849062206902 0.0
0.6256915692349665 -0.0091850960916211 0.0
0.6296070125574319 0.0094886620526104 0.0
1.3909392276583039 -0.0074996719258306 0.0
1.3930495952038602 0.0059303398632702 0.0
0.9673342868929884 0.2034980492039842 0.0
0.9542468679023866 -0.1952934169214652 0.0
1.2041846904677034 -0.0032919326942910 0.0
1.2032065459846069 0.0063834600470953 0.0
1.2679833944569079 0.0209504888755852 0.0
1.2678725013563756 -0.0351961573793853 0.0
1.2960933151956926 0.0113365504385244 0.0
1.2869449040576710 0.0091681304085484 0.0
1.1469901050829159 -0.0790294810597353 0.0
1.1498682605311630 -0.0807649029015700 0.0
1.2470674475122157 -0.0250007660744152 0.0
1.2390462758852407 0.0219456986997599 0.0
1.3567565486522475 0.0148206614717755 0.0
1.3536723573093117 -0.0179331163194870 0.0
1.2533448536548462 -0.0283058751757923 0.0
1.2457492668216732 0.0257360753686936 0.0
0.5816803418084977 0.0778226783136694 0.0
0.5777394897331123 0.0762814948461792 0.0
0.5756291103509434 -0.0648119128142847 0.0
0.5788928604755821 -0.0655526547094527 0.0
1.3714665792735121 -0.1852564589103033 0.0
1.3723087965801521 -0.1826610320888576 0.0
0.5410253847861217 0.0016787482190077 0.0
0.5441893284773813 -0.0040082925291267 0.0
1.4853319802880478 0.2118951916132745 0.0
1.4846020992831508 0.2148168846353544 0.0
0.6390803668636048 0.0927877053465163 0.0
0.6382239982877751 0.0925502618344268 0.0
1.3985671517000360 0.0127161090737148 0.0
1.3975782878461362 -0.0145711052109201 0.0
1.3148629050451086 -0.0307885432403216 0.0
1.3178420829709483 0.0331956531376859 0.0
1.2854888035131882 -0.1773910340217938 0.0
1.2872670688719365 -0.1871656102074321 0.0
1.2795917069846146 0.2645453268792516 0.0
1.2810344869606896 0.2530033157792269 0.0
1.2932997440044109 -0.0015077788815834 0.0
1.2994220543030790 -0.0035176240979885 0.0
0.6117251515629947 0.0694138858983065 0.0
0.5884475352864886 -0.0737825082645637 0.0
0.5924639256423931 0.0684260845861830 0.0
0.6069046242189761 -0.0737842566211024 0.0
0.5938164705038635 0.0210687048607364 0.0
0.6022825318388103 0.0210631073156703 0.0
0.6465575695458048 -0.0127367694396401 0.0
0.6554760540258247 -0.0147161893173920 0.0
1.0976857738131816 -0.1257013165749307 0.0
1.1012973345349348 -0.1143116654655145 0.0
1.1024790983011181 0.1309606051939642 0.0
1.0995760540780704 0.1420211443035215 0.0
1.1681236877690497 -0.2025268031722393 0.0
1.1679521044704930 0.2157567283863968 0.0
1.2992275320288653 0.0266685649298314 0.0
1.2912435945911109 0.0231338485863484 0.0
0.6384195250394167 -0.0024724765159419 0.0
0.5973267246134316 0.0012178431040635 0.0
0.6424548218514343 0.0030674144739199 0.0
0.6013699764734595 -0.0000424398425233 0.0
1.3209789472491240 0.0017584733075384 0.0
1.3211781831256522 -0.0017172623557190 0.0
1.3036209179063827 -0.0197180993671402 0.0
1.3154075049754128 -0.0202591214639538 0.0
0.9326926353745948 0.2285392623491627 0.0
0.9630698407761833 -0.2210690848254954 0.0
1.1669669247558583 0.0817137764703941 0.0
1.1562252940485818 0.0828075580024996 0.0
1.1772578454540370 -0.1032243839571852 0.0
1.1646598984951062 -0.1032720331576621 0.0
0.7136141420629006 -0.1161489889838071 0.0
0.7060547974450414 0.1064421140220767 0.0
0.4566280708703995 -0.0120605139861256 0.0
0.4526094438000541 -0.0119197747218286 0.0
0.4561715870182329 -0.0178505287416220 0.0
0.4603469038633336 -0.0185654240375756 0.0
0.4915740159620326 -0.0087010895319905 0.0
0.4923456250601077 0.0090619747617890 0.0
1.1904360042569095 0.2283385433355087 0.0
1.1595779289379995 -0.2008798298036676 0.0
0.6142774282065980 -0.0682569119288056 0.0
0.6062456389954437 0.0813472267477572 0.0
0.6068782528198764 -0.0669678910048682 0.0
0.6135872031148892 0.0829765086022193 0.0
1.4020989716299255 0.0098969942006696 0.0
1.4064593346578023 -0.0180042225643701 0.0
0.5542715780785324 0.0511236567630938 0.0
0.5891394508059264 -0.0842626785852849 0.0
0.9215304425201455 0.0230301920054771 0.0
0.9239481815543326 0.0265585212417267 0.0
0.9275251532480020 -0.0189735342122830 0.0
0.9247978587996009 -0.0155760629639864 0.0
0.8801038832786531 0.0071597196785190 0.0
0.8804962349638088 0.0181137237074255 0.0
0.6585198356144943 0.0679987747722577 0.0
0.6138242009005593 -0.0708708850099719 0.0
0.6502780037491905 0.0666999162207386 0.0
0.6209574764423401 -0.0725432511368080 0.0
1.3197820633141200 0.0013986539949957 0.0
1.3189316572027525 -0.0034600050397787 0.0
0.5571313892274516 -0.0794177512775948 0.0
0.5824429225040751 0.0526017568144258 0.0
0.5696872872590816 0.0661072424791778 0.0
0.5701428859231105 -0.0650085603503693 0.0
1.2412207223820679 -0.0162496732077934 0.0
1.2394272355440503 -0.0078839485593285 0.0
1.2400939525454413 -0.0294702698297946 0.0
1.2492220395386464 -0.0246319215700472 0.0
1.2956124284194317 -0.0214408051935807 0.0
1.2859415478812981 -0.0186873626693919 0.0
1.2751182879920380 -0.0274156313758683 0.0
1.2828362066634054 -0.0246186387696229 0.0
1.2342126929904829 -0.0436469631338496 0.0
1.2460941747484264 -0.0418868551520923 0.0
0.6457754994823816 -0.0006626732673421 0.0
0.6256233754640602 0.0015729473543176 0.0
0.6353700996048428 0.0000985485163131 0.0
0.6358672072999247 -0.0017372842104318 0.0