# vtk DataFile Version 3.0
LucasCarvalhoTCC Results
ASCII

DATASET POLYDATA
FIELD FieldData 1
TIME 1 1 double
0.30000000000000004

POINTS 494 float
0.0 0.0 0.0
8.0 0.0 0.0
8.0 1.0 0.0
0.0 1.0 0.0
4.0 0.0 0.0
4.0 1.0 0.0
4.0 0.35 0.0
4.0 0.65 0.0
0.2010296266416496 1.0 0.0
0.3986915135488555 1.0 0.0
0.5930420631591132 1.0 0.0
0.7841367769318693 1.0 0.0
0.9720301907499852 1.0 0.0
1.156775924166146 1.0 0.0
1.33842670621592 1.0 0.0
1.517034389070868 1.0 0.0
1.69264994674003 1.0 0.0
1.865323550794866 1.0 0.0
2.035104414722059 1.0 0.0
2.202040983487818 1.0 0.0
2.366180993436638 1.0 0.0
2.527571282866703 1.0 0.0
2.686257831390245 1.0 0.0
2.842286022819771 1.0 0.0
2.995700353514032 1.0 0.0
3.146544637914273 1.0 0.0
3.294861880721452 1.0 0.0
3.440694398353104 1.0 0.0
3.58408394609007 1.0 0.0
3.725071294102791 1.0 0.0
3.863696788294668 1.0 0.0
4.136303211705004 1.0 0.0
4.274928705896546 1.0 0.0
4.415916053908917 1.0 0.0
4.55930560164552 1.0 0.0
4.7051381192768 1.0 0.0
4.853455362083593 1.0 0.0
5.004299646483437 1.0 0.0
5.157713977177285 1.0 0.0
5.313742168606385 1.0 0.0
5.472428717129489 1.0 0.0
5.6338190065591 1.0 0.0
5.797959016507455 1.0 0.0
5.96489558527273 1.0 0.0
6.134676449200184 1.0 0.0
6.307350053255487 1.0 0.0
6.482965610925135 1.0 0.0
6.661573293780584 1.0 0.0
6.843224075830887 1.0 0.0
7.027969809247587 1.0 0.0
7.215863223066262 1.0 0.0
7.4069579368396 1.0 0.0
7.601308486450315 1.0 0.0
7.798970373357896 1.0 0.0
8.0 0.7999999999999996 0.0
8.0 0.6000000000013874 0.0
8.0 0.4000000000016649 0.0
8.0 0.2000000000008324 0.0
7.798970373357898 0.0 0.0
7.601308486450317 0.0 0.0
7.406957936839601 0.0 0.0
7.215863223066265 0.0 0.0
7.02796980924759 0.0 0.0
6.843224075830888 0.0 0.0
6.661573293780592 0.0 0.0
6.482965610925139 0.0 0.0
6.307350053255492 0.0 0.0
6.134676449200188 0.0 0.0
5.964895585272735 0.0 0.0
5.797959016507459 0.0 0.0
5.633819006559103 0.0 0.0
5.472428717129493 0.0 0.0
5.313742168606389 0.0 0.0
5.157713977177288 0.0 0.0
5.004299646483441 0.0 0.0
4.853455362083597 0.0 0.0
4.705138119276803 0.0 0.0
4.559305601645523 0.0 0.0
4.415916053908919 0.0 0.0
4.274928705896549 0.0 0.0
4.136303211705007 0.0 0.0
3.863696788294383 0.0 0.0
3.725071294102209 0.0 0.0
3.584083946089184 0.0 0.0
3.440694398352564 0.0 0.0
3.29486188072223 0.0 0.0
3.146544637916415 0.0 0.0
2.995700353517581 0.0 0.0
2.842286022824779 0.0 0.0
2.68625783139676 0.0 0.0
2.527571282874774 0.0 0.0
2.366180993446318 0.0 0.0
2.202040983499156 0.0 0.0
2.035104414735112 0.0 0.0
1.865323550807426 0.0 0.0
1.692649946751479 0.0 0.0
1.517034389081164 0.0 0.0
1.338426706225015 0.0 0.0
1.156775924174005 0.0 0.0
0.9720301907565596 0.0 0.0
0.784136776937109 0.0 0.0
0.5930420631629705 0.0 0.0
0.3986915135514271 0.0 0.0
0.2010296266429896 0.0 0.0
0.0 0.199999999999558 0.0
0.0 0.3999999999989746 0.0
0.0 0.5999999999989464 0.0
0.0 0.7999999999994731 0.0
4.065082561150232 0.3648546699507293 0.0
4.117274722996153 0.4064765305061043 0.0
4.146239186965635 0.4666218605127571 0.0
4.146239186588658 0.5333781411388893 0.0
4.117274722147235 0.5935234705584039 0.0
4.065082560620447 0.6351453303044018 0.0
3.934917439190226 0.6351453302132268 0.0
3.882725277520537 0.5935234701418048 0.0
3.853760813071839 0.5333781396514286 0.0
3.853760813263242 0.4666218595099774 0.0
3.882725277782338 0.4064765295299076 0.0
3.934917439246251 0.3648546697597932 0.0
3.348071016817302 0.5037366844559412 0.0
4.65817771841185 0.4813089492125461 0.0
5.148432135339639 0.5000000000000013 0.0
2.851567863014233 0.5000000000000465 0.0
4.406326506211093 0.3072680842959042 0.0
3.575604791543614 0.6706702532911111 0.0
4.424395205595821 0.6706702556565258 0.0
3.593673497058965 0.3072680820819204 0.0
5.648652107845511 0.5000000000000006 0.0
2.351347890458042 0.4999999999998563 0.0
1.851146954963573 0.4999999999998219 0.0
6.148853043290459 0.4999999999999989 0.0
6.65089532386231 0.5241211434250735 0.0
1.349104674975677 0.4758788558671475 0.0
7.150713697794147 0.4858064203922342 0.0
0.8492863006035025 0.4858064203396458 0.0
4.216343713145164 0.2287135668575249 0.0
3.7836562881134 0.7712864338025908 0.0
4.346988371127422 0.5000000019594898 0.0
4.213775907987267 0.7756803165215952 0.0
3.653011628408684 0.4999999990051173 0.0
3.786224091202296 0.224319683220954 0.0
7.572712389010231 0.5763628491757339 0.0
0.4272876103144935 0.5763628498169726 0.0
4.881741322202974 0.3185523670790996 0.0
3.118258676783759 0.6814476337404539 0.0
3.126854924363118 0.2792890251323842 0.0
4.873145074373641 0.7207109754187309 0.0
5.398381996912613 0.291094588046412 0.0
5.396092528392672 0.7230702977293901 0.0
2.603907471650227 0.7230702981371074 0.0
2.601618001742297 0.2910945873520305 0.0
4.065645388412852 0.1903894420877926 0.0
3.934354612281609 0.8096105573695707 0.0
4.268393145079946 0.6292513280674802 0.0
3.731606853978594 0.3707486723017213 0.0
4.265062587797852 0.3723525870906427 0.0
3.734937412407246 0.6276474138958879 0.0
5.89991820844496 0.720584760457478 0.0
5.899661142431216 0.2940789491313893 0.0
2.100338856207466 0.7059210507243335 0.0
2.100081790085733 0.2794152396968363 0.0
4.648216390708278 0.2460745758417431 0.0
3.350865525112209 0.7519279174007294 0.0
3.351783614314077 0.2460745727859678 0.0
4.649134469923633 0.7519279206208029 0.0
6.386000070083336 0.2800687217561524 0.0
6.399946740387701 0.7091877900019353 0.0
1.613999929083956 0.7199312783619409 0.0
1.600053258667474 0.2908122092889953 0.0
1.099018086220021 0.3101534564461602 0.0
1.099018086220183 0.6898465435530818 0.0
6.900981912171285 0.3101534566801202 0.0
6.900981912171287 0.689846543319878 0.0
3.934891793257755 0.2336799984692873 0.0
4.065108206439434 0.7663200008196746 0.0
5.133077706310633 0.254681732561614 0.0
5.131620328745691 0.7509194919064351 0.0
2.866922291796803 0.7453182673725732 0.0
2.868379670398546 0.2490805081265555 0.0
0.5973224633027379 0.3123440263675117 0.0
7.402677535116692 0.3123440263206204 0.0
7.70928508668797 0.2984218335093966 0.0
0.2907149122204558 0.2984218350042115 0.0
2.359042531710287 0.2526358364218651 0.0
2.362552667743482 0.7498876177132479 0.0
5.640957467742433 0.2526358368965552 0.0
5.637447332034727 0.7498876177447886 0.0
7.330771635020911 0.7204300868765696 0.0
0.6692283641678903 0.7204300870263377 0.0
6.141991504218947 0.7500064293114952 0.0
6.143214654121697 0.2541610692540839 0.0
1.858008494097047 0.2499935706645152 0.0
1.856785344746094 0.7458389307817799 0.0
1.360037479834015 0.7503851535261052 0.0
1.363297687800482 0.2332108063209677 0.0
6.636702311691573 0.7667891933666813 0.0
6.639962519949044 0.2496148464378299 0.0
7.14328150074831 0.2292696686424185 0.0
0.8567184978980538 0.2292696684503961 0.0
4.845173759433459 0.5000000012080886 0.0
3.15482623877425 0.4999999993865263 0.0
3.514470413944982 0.5755907957035395 0.0
4.485529584365944 0.5755907996488695 0.0
4.350214515329574 0.8947484376274254 0.0
3.64978548377064 0.1052515623441257 0.0
4.356280753270322 0.1397878825788729 0.0
3.643719248073251 0.8602121180766233 0.0
4.157657982820168 0.3023031440803671 0.0
3.842342017851872 0.6976968563131654 0.0
4.149794964153143 0.6947625877680722 0.0
3.850205035403508 0.3052374120341299 0.0
4.252863769441745 0.5000000013253333 0.0
3.747136230269581 0.4999999993774377 0.0
2.66150837620265 0.4835883053501762 0.0
5.338491622258749 0.4835883052760253 0.0
7.732076714471282 0.7613785341653052 0.0
0.267923285219987 0.7613785345749642 0.0
3.482582425594127 0.3988584940714734 0.0
4.517417574829351 0.3988584973195787 0.0
7.120961454429095 0.7969630876933931 0.0
0.8790385446795201 0.7969630878928393 0.0
4.524178509919695 0.1937066442020419 0.0
3.472973035782958 0.803602443762734 0.0
4.527026959328886 0.8036024455277256 0.0
3.475821495314308 0.1937066425220846 0.0
5.834485749168302 0.4775259269822466 0.0
2.16551424934095 0.5224740729963462 0.0
4.803832126993392 0.8343163881584211 0.0
3.196167871756218 0.1656836120733276 0.0
3.196167870279283 0.834316388182051 0.0
4.803832130306974 0.1656836112805605 0.0
1.646902821176459 0.5088844228822333 0.0
6.35309717778631 0.4911155766888507 0.0
4.128745436683365 0.8608937921704661 0.0
3.871254562700506 0.1391062074145501 0.0
7.783519314041498 0.4824599318584197 0.0
0.2164806854160975 0.4824599323519634 0.0
3.981228286637499 0.1341601386487245 0.0
4.018771713398118 0.8658398609794804 0.0
4.757705393330306 0.6277793253200102 0.0
3.245404476813698 0.3720431195654205 0.0
3.262406961538709 0.609092082228193 0.0
4.738552632749474 0.3854106153034425 0.0
4.980576921401999 0.1828043249223437 0.0
3.019423077460087 0.8171956749482756 0.0
4.975386875116307 0.8288560892267683 0.0
3.024613123995747 0.1711439108946455 0.0
7.537862127958827 0.7914398748884439 0.0
0.46213787149577 0.7914398749623154 0.0
4.150965283491015 0.1232311208167031 0.0
3.849034718225983 0.8767688792466098 0.0
0.6330166515036239 0.5212993800799176 0.0
7.366983347335347 0.5212993798709434 0.0
5.001451172914062 0.4591396125040952 0.0
2.998548825585332 0.5408603877155073 0.0
5.250532135494552 0.1623854812497458 0.0
5.24999687257574 0.8404382486850067 0.0
2.749794930508214 0.8396380739052673 0.0
2.749676059914328 0.161585306286623 0.0
1.150631951549359 0.5017906253149568 0.0
6.85747267660715 0.5137706215776152 0.0
2.938770240933895 0.3859183074771494 0.0
5.061229757952985 0.6140816927005173 0.0
5.521883200863776 0.8371838481144578 0.0
5.520780843451154 0.1567733764659754 0.0
2.479219155991939 0.1567733759623464 0.0
2.478116798894765 0.8371838481096507 0.0
2.208224060227917 0.1725929992863016 0.0
2.214655190115911 0.821187355218689 0.0
5.791775938918927 0.8274070011383262 0.0
5.785558009721889 0.1789659155514431 0.0
5.243140500145841 0.3651007420679131 0.0
5.247758683472709 0.6318228659349833 0.0
2.748336099792684 0.6332079670712092 0.0
2.766145970608876 0.3583112578457802 0.0
2.500794992947401 0.4517155340697119 0.0
5.499205006433885 0.4517155344186723 0.0
3.472119223331378 0.69283875816516 0.0
4.527880773131323 0.6928387614752662 0.0
2.445947440949104 0.6396216022327238 0.0
5.554052558509333 0.6396216019605415 0.0
[...]
POINT_DATA 494

VECTORS Velocity float
0.0000000000000000 0.0000000000000000 0.0
0.8435626312637808 -0.1037993151392198 0.0
0.0000000000000000 0.0000000000000000 0.0
0.0000000000000000 0.0000000000000000 0.0
0.0000000000000000 0.0000000000000000 0.0
0.0000000000000000 0.0000000000000000 0.0
0.0000000000000000 0.0000000000000000 0.0
0.0000000000000000 0.0000000000000000 0.0
0.0000000000000000 0.0000000000000000 0.0
0.0000000000000000 0.0000000000000000 0.0
0.0000000000000000 0.0000000000000000 0.0
0.0000000000000000 0.0000000000000000 0.0
0.0000000000000000 0.0000000000000000 0.0
0.0000000000000000 0.0000000000000000 0.0
0.0000000000000000 0.0000000000000000 0.0
0.0000000000000000 0.0000000000000000 0.0
0.0000000000000000 0.0000000000000000 0.0
0.0000000000000000 0.0000000000000000 0.0
0.0000000000000000 0.0000000000000000 0.0
0.0000000000000000 0.0000000000000000 0.0
0.0000000000000000 0.0000000000000000 0.0
0.0000000000000000 0.0000000000000000 0.0
0.0000000000000000 0.0000000000000000 0.0
0.0000000000000000 0.0000000000000000 0.0
0.0000000000000000 0.0000000000000000 0.0
0.0000000000000000 0.0000000000000000 0.0
0.0000000000000000 0.0000000000000000 0.0
0.0000000000000000 0.0000000000000000 0.0
0.0000000000000000 0.0000000000000000 0.0
0.0000000000000000 0.0000000000000000 0.0
0.0000000000000000 0.0000000000000000 0.0
0.0000000000000000 0.0000000000000000 0.0
0.0000000000000000 0.0000000000000000 0.0
0.0000000000000000 0.0000000000000000 0.0
0.0000000000000000 0.0000000000000000 0.0
0.0000000000000000 0.0000000000000000 0.0
0.0000000000000000 0.0000000000000000 0.0
0.0000000000000000 0.0000000000000000 0.0
0.0000000000000000 0.0000000000000000 0.0
0.0000000000000000 0.0000000000000000 0.0
0.0000000000000000 0.0000000000000000 0.0
0.0000000000000000 0.0000000000000000 0.0
0.0000000000000000 0.0000000000000000 0.0
0.0000000000000000 0.0000000000000000 0.0
0.0000000000000000 0.0000000000000000 0.0
0.0000000000000000 0.0000000000000000 0.0
0.0000000000000000 0.0000000000000000 0.0
0.0000000000000000 0.0000000000000000 0.0
0.0000000000000000 0.0000000000000000 0.0
0.0000000000000000 0.0000000000000000 0.0
0.0000000000000000 0.0000000000000000 0.0
0.0000000000000000 0.0000000000000000 0.0
0.0000000000000000 0.0000000000000000 0.0
0.0000000000000000 0.0000000000000000 0.0
1.0946052486347240 0.4134608523987430 0.0
0.9859353251604066 0.0698945129794481 0.0
0.9819779516786351 -0.0405287458142519 0.0
1.0616319111760546 -0.3362972280462672 0.0
0.0000000000000000 0.0000000000000000 0.0
0.0000000000000000 0.0000000000000000 0.0
0.0000000000000000 0.0000000000000000 0.0
0.0000000000000000 0.0000000000000000 0.0
0.0000000000000000 0.0000000000000000 0.0
0.0000000000000000 0.0000000000000000 0.0
0.0000000000000000 0.0000000000000000 0.0
0.0000000000000000 0.0000000000000000 0.0
0.0000000000000000 0.0000000000000000 0.0
0.0000000000000000 0.0000000000000000 0.0
0.0000000000000000 0.0000000000000000 0.0
0.0000000000000000 0.0000000000000000 0.0
0.0000000000000000 0.0000000000000000 0.0
0.0000000000000000 0.0000000000000000 0.0
0.0000000000000000 0.0000000000000000 0.0
0.0000000000000000 0.0000000000000000 0.0
0.0000000000000000 0.0000000000000000 0.0
0.0000000000000000 0.0000000000000000 0.0
0.0000000000000000 0.0000000000000000 0.0
0.0000000000000000 0.0000000000000000 0.0
0.0000000000000000 0.0000000000000000 0.0
0.0000000000000000 0.0000000000000000 0.0
0.0000000000000000 0.0000000000000000 0.0
0.0000000000000000 0.0000000000000000 0.0
0.0000000000000000 0.0000000000000000 0.0
0.0000000000000000 0.0000000000000000 0.0
0.0000000000000000 0.0000000000000000 0.0
0.0000000000000000 0.0000000000000000 0.0
0.0000000000000000 0.0000000000000000 0.0
0.0000000000000000 0.0000000000000000 0.0
0.0000000000000000 0.0000000000000000 0.0
0.0000000000000000 0.0000000000000000 0.0
0.0000000000000000 0.0000000000000000 0.0
0.0000000000000000 0.0000000000000000 0.0
0.0000000000000000 0.0000000000000000 0.0
0.0000000000000000 0.0000000000000000 0.0
0.0000000000000000 0.0000000000000000 0.0
0.0000000000000000 0.0000000000000000 0.0
0.0000000000000000 0.0000000000000000 0.0
0.0000000000000000 0.0000000000000000 0.0
0.0000000000000000 0.0000000000000000 0.0
0.0000000000000000 0.0000000000000000 0.0
0.0000000000000000 0.0000000000000000 0.0
0.0000000000000000 0.0000000000000000 0.0
0.0000000000000000 0.0000000000000000 0.0
0.0000000000000000 0.0000000000000000 0.0
1.0000000000000000 0.0000000000000000 0.0
1.0000000000000000 0.0000000000000000 0.0
1.0000000000000000 0.0000000000000000 0.0
1.0000000000000000 0.0000000000000000 0.0
0.0000000000000000 0.0000000000000000 0.0
0.0000000000000000 0.0000000000000000 0.0
0.0000000000000000 0.0000000000000000 0.0
0.0000000000000000 0.0000000000000000 0.0
0.0000000000000000 0.0000000000000000 0.0
0.0000000000000000 0.0000000000000000 0.0
0.0000000000000000 0.0000000000000000 0.0
0.0000000000000000 0.0000000000000000 0.0
0.0000000000000000 0.0000000000000000 0.0
0.0000000000000000 0.0000000000000000 0.0
0.0000000000000000 0.0000000000000000 0.0
0.0000000000000000 0.0000000000000000 0.0
1.2079672744771996 0.0000776647705373 0.0
1.2088348151494441 -0.0008062902593936 0.0
1.2687674027362124 -0.0054039117930429 0.0
1.2696791089575634 0.0022471760972343 0.0
1.2304865215800012 0.0044142802651001 0.0
1.2176968647293687 0.0164981735540065 0.0
1.2053319190049216 -0.0444737171552671 0.0
1.2144706511038177 -0.0419896007823407 0.0
1.2703356332399816 0.0054330589062684 0.0
1.2692502430493278 -0.0119688245996831 0.0
1.2654871713092888 0.0092833516357483 0.0
1.2648313135988833 0.0076243601551284 0.0
1.2856568607910202 -0.0063649924403740 0.0
1.2878914496108802 -0.0028506660552126 0.0
1.3267253792155860 0.0066128957359058 0.0
1.3254676902268556 -0.0117415483579324 0.0
1.3502765434880666 0.1244029244201344 0.0
1.3442693875698841 0.1301531623267502 0.0
1.1298896215433896 0.0023000640246221 0.0
1.3577164415044953 -0.0964884995792724 0.0
1.1310628694519935 0.0089521402001063 0.0
1.3634195598451215 -0.0919548800770857 0.0
1.3563891300033435 0.0166072972386430 0.0
1.3549649980509746 -0.0238146707052166 0.0
1.2802895281197144 0.0138122845832018 0.0
1.2693153642365247 0.0143019409910349 0.0
1.2900272607065726 -0.0049278533591151 0.0
1.2774578287887746 -0.0040954044225182 0.0
1.3250876183920817 0.0005853448330461 0.0
1.3096973468422202 -0.0067759775303036 0.0
1.3045794472496879 0.0046635850050669 0.0
1.3285865173751592 -0.0024580113707067 0.0
1.4319853587990412 0.1018043048267636 0.0
1.4307490893102184 0.1026082373296096 0.0
1.1871838257583729 -0.1345877877298045 0.0
1.1861289876414751 -0.1261789589127896 0.0
1.2252017460359090 0.1548615499640822 0.0
1.2258720069976896 0.1664878730735430 0.0
1.2749759799109690 -0.0292942364247760 0.0
1.2983799247703662 0.0130389004915182 0.0
1.2856804447281300 0.0130409026270991 0.0
1.2892075854374974 -0.0287593313366779 0.0
1.2133060469420403 -0.0099906069602449 0.0
1.1984682082544373 -0.0074652822965402 0.0
1.2213436901176660 -0.0000555163518330 0.0
1.2060561362189401 -0.0036516757762224 0.0
1.2555501842350478 0.0016210924221180 0.0
1.2245963470952366 -0.0035303491274983 0.0
1.2421061149000361 0.0040586625951555 0.0
1.2369976095480451 -0.0007090778493721 0.0
1.3814567121982924 0.0030501860013540 0.0
1.3403899426515586 0.0412656877948937 0.0
1.3791428958818113 -0.0056107411065884 0.0
1.3429149460469243 -0.0435541668528737 0.0
1.4807302094831658 -0.1278637282000939 0.0
1.4805209896992138 -0.1301419559973008 0.0
1.2850476709759824 0.0152508780635684 0.0
1.2782943206677533 -0.0196314583555049 0.0
1.2731394743364979 0.0091742649981230 0.0
1.2891730072077867 -0.0263712850448091 0.0
1.3807423741069684 -0.0157610182553751 0.0
1.3844681698337262 0.0135414115345989 0.0
1.2873084993625166 -0.1189817336218884 0.0
1.2945727147529105 0.1179976974441736 0.0
1.2993382202713526 0.0324441318834035 0.0
1.2788146821377389 -0.0203031882606976 0.0
1.2934575556395929 -0.0239266912213287 0.0
1.2841926856793437 0.0310038043708433 0.0
1.2974808588815079 -0.0014185933384154 0.0
1.2975774941048375 -0.0021978077396456 0.0
1.2731882189177754 0.0398811202365058 0.0
1.2954633721132320 -0.0359855487752443 0.0
1.2882174827828468 0.0412513658910535 0.0
1.2809248151283710 -0.0353713568204511 0.0
1.2726740483962318 0.0542118694118680 0.0
1.2771311351604935 -0.0551634773506750 0.0
1.2625816812269137 -0.0636612056827794 0.0
1.2874655718840071 0.0473690513513443 0.0
1.2722968759990940 -0.0076489149448090 0.0
1.2723726419109076 0.0053212237328355 0.0
1.2371599373796873 0.0069477538295165 0.0
1.2358361244386162 0.0071215331507198 0.0
1.1838066619552086 0.0196552090967421 0.0
1.1814900938641313 -0.0161514188222497 0.0
0.7208593423347123 -0.0060288123154012 0.0
0.7148599587153841 -0.0042683336526957 0.0
0.8060042914450418 0.0724397772415105 0.0
0.8096041812554826 0.0731468960914359 0.0
1.3168869691583489 0.2765635957783421 0.0
1.3196671989349993 0.2825469629906834 0.0
1.3494388913125428 -0.2185543261713169 0.0
1.3460047549481360 -0.2132611815573341 0.0
0.9634206428688120 -0.0006322480511395 0.0
0.9637479265412162 0.0163023508282241 0.0
1.2883912682602356 -0.0001865749631655 0.0
1.2876220876212896 -0.0033107035003762 0.0
1.2419054690434399 0.1497503252971296 0.0
1.2458889862812341 -0.1904919809738191 0.0
1.1884166961507965 -0.0089532710012355 0.0
1.1908880346086206 0.0055247489642532 0.0
0.9006380432366482 0.0012161038917490 0.0
0.9070853548146833 -0.0029644233451405 0.0
1.1919894723757867 0.0002017637828250 0.0
1.1777413774714938 -0.0070521971773875 0.0
1.1855024843549624 -0.0140647628098900 0.0
1.2026509048083849 -0.0181259726343597 0.0
1.2783710709712375 -0.0037531165672452 0.0
1.2766779611159449 -0.0008542072936063 0.0
0.9015748084099686 -0.0622638798040314 0.0
0.9140246533250069 -0.0613342975076460 0.0
0.9323730209060975 0.0590249821004691 0.0
0.9449558241605398 0.0577947996809428 0.0
1.2658444615014754 0.0030228713559215 0.0
1.2660785444478166 0.0017050192396456 0.0
0.9976421429836001 -0.0540683794904604 0.0
1.0016529282294804 -0.0542775852073381 0.0
1.1853182643537648 -0.0009123160816339 0.0
1.1657541658725028 0.0092690299188281 0.0
1.0383896507556860 -0.0482280245320604 0.0
1.0366296878616819 -0.0480806197472105 0.0
1.2389317806599465 -0.0198644663961975 0.0
1.2479357158284761 -0.0205053982487243 0.0
1.2302176221019854 0.0255130781740343 0.0
1.2370290669856336 0.0268327582398235 0.0
0.9772903034334278 -0.0021604778207790 0.0
0.9653277379098318 -0.0016515875402010 0.0
0.9345865362090482 0.0067998146233019 0.0
0.9431959873528490 0.0069390527645599 0.0
0.9321127275887614 0.0172605043751937 0.0
0.9398989638761176 -0.0236871290811484 0.0
0.8509046328334312 0.0312030965642544 0.0
0.8475479914078047 0.0315357767339446 0.0
1.3049017213431597 -0.0130402705828610 0.0
1.3065163905486192 0.0078597839942232 0.0
1.2512763718923405 -0.0060973675489430 0.0
1.2492791567671955 -0.0073520227914220 0.0
0.8846925000814405 0.0039120297373354 0.0
0.8794544548958205 0.0022314635421725 0.0
0.8740287543805572 0.0006570322704497 0.0
0.8848005352305435 -0.0001396963546476 0.0
1.3145372390610621 0.0059094161154730 0.0
1.3159519059114790 -0.0206180603536632 0.0
1.2517549707497335 -0.0238435010581727 0.0
1.2434624389423374 -0.0202514603120094 0.0
0.8657699744482424 -0.0089556144088910 0.0
0.8285640804644412 0.0100727385103577 0.0
0.8328830146548499 -0.0108983194732399 0.0
0.8608037768429245 0.0078990086556945 0.0
0.9580076269343486 0.0193546909939720 0.0
0.9439041814221298 -0.0170068750214801 0.0
0.9515385123346628 0.0180804776517771 0.0
0.9562907173003533 -0.0187267907062899 0.0
1.3094360015996866 0.0223722298741792 0.0
1.2911173685458281 -0.0164863703188620 0.0
1.2902413527977936 0.0124222357691658 0.0
1.3081681425498768 -0.0261927463232432 0.0
1.2851268775498164 0.0145752356515271 0.0
1.2842991646876747 -0.0147928857269484 0.0
1.2157151583473131 0.0203092358194162 0.0
1.2122671736762507 -0.0298742501452135 0.0
1.2911092377247853 -0.0064939975968982 0.0
1.2908142147444237 0.0065204994971940 0.0
0.8814216088749336 -0.0149733508560282 0.0
0.8293917349330412 0.0184615475608163 0.0
0.8711980662327534 -0.0151297572587504 0.0
0.8402512060389649 0.0188966868637683 0.0
0.7526503189035672 -0.0971392947307710 0.0
0.7493289371349425 -0.0939863407273188 0.0
1.2113142877522496 0.0786400155580697 0.0
1.2143587172219719 0.0808722767818990 0.0
1.2739103782560490 -0.0065093333069697 0.0
1.2633393323302240 -0.0011833410912264 0.0
1.2565177430214063 0.0035969893193721 0.0
1.2841451564501318 0.0101996919850954 0.0
0.9049729777384413 -0.0415283048239501 0.0
0.8993709025843842 0.0346061202175111 0.0
1.0393915470416111 -0.0967564589143201 0.0
1.0349440468734323 -0.0841392694132264 0.0
1.0463931040653880 0.0985610719047733 0.0
1.0489044556437923 0.1099207115113859 0.0
0.9646986184688038 -0.0274342281892384 0.0
0.9539866586746996 0.0431401445109554 0.0
0.9522242356505149 -0.0256078596221353 0.0
0.9667271518400873 0.0452260152088646 0.0
1.2782476623464964 -0.0115175058289770 0.0
1.2755145931791454 -0.0125742843129900 0.0
0.8430697118514724 -0.0184299213398157 0.0
0.8615006759241918 -0.0017259594470370 0.0
0.8361529658931932 0.0103194433195067 0.0
0.8650203062607685 0.0240466498955072 0.0
0.8257378591373360 -0.0118812909188345 0.0
0.8270826241629230 0.0101458850011246 0.0
1.2390875420153176 -0.0770783365749688 0.0
1.2325980009759456 -0.0826433193684545 0.0
1.3006624060104777 0.1111818061316152 0.0
1.2906661572363618 0.1104997903728997 0.0
0.7376646966968010 -0.0356814104605496 0.0
0.7305992283487870 -0.0369162101865786 0.0
0.7460653411212106 0.0349506447109147 0.0
0.7404906762494999 0.0350007753307545 0.0
1.2920454281236677 0.0063084221254147 0.0
1.3019267810288895 0.0074597579126539 0.0
1.1533623586520076 -0.0528070459797745 0.0
1.1587257426544983 -0.0503573038148534 0.0
1.1875185486613378 0.0476663581640816 0.0
1.1841635199808285 0.0519723843743543 0.0
0.9734062772331303 0.0284047054121748 0.0
0.9210312478116141 -0.0657509194042297 0.0
0.9606943221658621 0.0321566119220942 0.0
0.9347150930974027 -0.0617172647678539 0.0
1.2697304469331927 -0.0024499126064306 0.0
1.2503819767816122 0.0056009550468284 0.0
1.2598460307788839 -0.0017238089165654 0.0
1.2594260239739983 0.0061431716205172 0.0
1.2698895967129724 0.0048561919877481 0.0
1.2662054719301836 0.0018827157711118 0.0
0.8205583417325407 -0.0112013251712055 0.0
0.8275756469948625 0.0126911069694460 0.0
1.2573534819428593 0.0183296550947094 0.0
1.2645708514205811 0.0161008507406337 0.0
1.3447233343003067 -0.0312422978141683 0.0
1.3425159700334026 0.0224905137828613 0.0
0.8776217275734732 0.0403655366773392 0.0
0.8799618264889075 0.0415801403578301 0.0
1.3148834080800536 -0.0418282755634476 0.0
1.3057652519281193 0.0315645717984904 0.0
1.3071970526781103 -0.0444044983611511 0.0
1.3131985864953837 0.0271502594280492 0.0
1.3255326729857424 -0.0286114355152326 0.0
1.3302029599845913 0.0244020863952873 0.0
0.6666263910112148 -0.0106608014276763 0.0
0.6712022265938966 0.0105608177464877 0.0
1.3488862168206115 -0.0040269064237557 0.0
1.3505967798405802 0.0020003405158976 0.0
0.9792809459360717 0.1909002323416780 0.0
0.9722525628523706 -0.1820432136859287 0.0
1.1807619368191187 -0.0023634588917944 0.0
1.1781654024517230 0.0060111824624844 0.0
1.2283795647195015 0.0201373554958661 0.0
1.2258263020986746 -0.0310400942001402 0.0
1.2703782394786736 0.0109868849649006 0.0
1.2599831420999301 0.0097418081891940 0.0
1.1336812825659202 -0.0741936786510739 0.0
1.1377896613696945 -0.0762879285344722 0.0
1.2087679785058008 -0.0205960470320999 0.0
1.2025710390319118 0.0184421353332244 0.0
1.3204389478512299 0.0198685744473270 0.0
1.3184009156799366 -0.0234871257669301 0.0
1.2151808181063068 -0.0227320402965704 0.0
1.2095663822868710 0.0218392539120301 0.0
0.6269349155132043 0.0823094240145914 0.0
0.6207400156503797 0.0812704238598934 0.0
0.6199588955770640 -0.0712265373536470 0.0
0.6258160363449794 -0.0715586536421171 0.0
1.3308274315596815 -0.1537725803963098 0.0
1.3317479592826300 -0.1506041537806226 0.0
0.5940467597204656 0.0028215453625883 0.0
0.5965905727515292 -0.0052893564519508 0.0
1.4485332829419555 0.1925715752410893 0.0
1.4476611438963254 0.1964170180485995 0.0
0.6688319474180370 0.0928196998838295 0.0
0.6670751320665274 0.0926392965323517 0.0
1.3582245281649106 0.0147170140758899 0.0
1.3576059356911194 -0.0168312078734192 0.0
1.2982868740301368 -0.0285814059991334 0.0
1.3005255541100709 0.0301238369886797 0.0
1.2389790882895149 -0.1472646712294679 0.0
1.2414675399666293 -0.1572904427020132 0.0
1.2379021595798159 0.2183515723859344 0.0
1.2378338444363712 0.2065497401728207 0.0
1.2446186443051426 -0.0021738113883824 0.0
1.2505985570200626 -0.0032416653408788 0.0
0.6525257446637567 0.0707709993888667 0.0
0.6272034515541909 -0.0745936132666087 0.0
0.6302595732675074 0.0691612849016314 0.0
0.6486926823411781 -0.0754466199954358 0.0
0.6428689053887642 0.0189285613596020 0.0
0.6485434745861423 0.0193050914304172 0.0
0.6939823423235973 -0.0118604172543352 0.0
0.7001313381997603 -0.0141939096594845 0.0
1.0906459655411560 -0.1123445976517859 0.0
1.0934263104139479 -0.0997806760116651 0.0
1.0895937006305554 0.1108629556130351 0.0
1.0874279665517996 0.1229933482687101 0.0
1.1519521149149736 -0.1730354199404948 0.0
1.1616749221417513 0.1929226047763832 0.0
1.2552871319432608 0.0225325562690862 0.0
1.2469070948521188 0.0179813961835648 0.0
0.6795579636206472 -0.0011650774290647 0.0
0.6337746664980919 0.0014356506873155 0.0
0.6832178408900178 0.0012379447304291 0.0
0.6371917644153593 -0.0008244233594091 0.0
1.2753755520433008 0.0020510640627271 0.0
1.2756172115938296 -0.0008919061367535 0.0
1.2869595068342587 -0.0195623026887686 0.0
1.2993624350511850 -0.0198683265662540 0.0
0.9528281385870947 0.2105193128018704 0.0
0.9740050430214773 -0.2069649933541144 0.0
1.1768909224899391 0.0768406412136892 0.0
1.1639686570316490 0.0775132392694179 0.0
1.1862754418595893 -0.0942489761001332 0.0
1.1722673448850425 -0.0944657605937896 0.0
0.7470563873112437 -0.1095232326667079 0.0
0.7323037471384498 0.0912502598156376 0.0
0.5070844218202051 -0.0057575610006004 0.0
0.5013056716858370 -0.0059982249390760 0.0
0.5032583857253951 -0.0217400272386822 0.0
0.5091581026399974 -0.0227824438906773 0.0
0.5396725719255119 -0.0083003600669442 0.0
0.5401198531740420 0.0084629599655660 0.0
1.1745654143220232 0.1917262831791053 0.0
1.1517516416454012 -0.1734857906746191 0.0
0.6541769990872266 -0.0699318257844154 0.0
0.6444640498074106 0.0816543627177888 0.0
0.6453851666239894 -0.0686166101045034 0.0
0.6531271170021465 0.0832079113785496 0.0
1.3656417549861368 -0.0033865418007194 0.0
1.3690501488829658 -0.0040746680277975 0.0
0.5981977741747874 0.0427466657156930 0.0
0.6226569657960828 -0.0685333937363146 0.0
0.9294325479504528 0.0287905289434429 0.0
0.9333074443790246 0.0334002196095668 0.0
0.9364737258645820 -0.0239558136745540 0.0
0.9326793079240400 -0.0196221192605485 0.0
0.8926885329329500 0.0048222051741142 0.0
0.8930381892654657 0.0170562238665635 0.0
0.6968748550803124 0.0705903200879421 0.0
0.6481558664684873 -0.0717757560484141 0.0
0.6867888442327934 0.0692803658749389 0.0
0.6571133376042980 -0.0734010119443870 0.0
1.2651502646905068 0.0019770839831341 0.0
1.2645541858410623 -0.0035629147804846 0.0
0.6003330671614300 -0.0789884347768697 0.0
0.6234950785750670 0.0534711569358093 0.0
0.6096715535156635 0.0670306864797658 0.0
0.6139870482905592 -0.0646007083891863 0.0
1.2585346864396734 -0.0240725776854104 0.0
1.2515522511920023 -0.0149081667915191 0.0
1.2445292652382247 -0.0268301303648421 0.0
1.2567087204719931 -0.0210557677556645 0.0
1.2674218649069615 -0.0216739566703920 0.0
1.2566420665007221 -0.0202790675087496 0.0
1.2455459534935451 -0.0189641280126078 0.0
1.2546495713257297 -0.0168204299837993 0.0
1.2491490528057454 -0.0357324977584151 0.0
1.2624169095121784 -0.0333110939368586 0.0
0.6820760827099380 -0.0005895400747472 0.0
0.6605432157669572 0.0002728272451932 0.0
0.6714232892064541 -0.0010710377167084 0.0
0.6712134210695968 -0.0014089895350443 0.0