# vtk DataFile Version 3.0
LucasCarvalhoTCC Results
ASCII

DATASET POLYDATA
FIELD FieldData 1
TIME 1 1 double
0.7000000000000001

POINTS 494 float
0.0 0.0 0.0
8.0 0.0 0.0
8.0 1.0 0.0
0.0 1.0 0.0
4.0 0.0 0.0
4.0 1.0 0.0
4.0 0.35 0.0
4.0 0.65 0.0
0.2010296266416496 1.0 0.0
0.3986915135488555 1.0 0.0
0.5930420631591132 1.0 0.0
0.7841367769318693 1.0 0.0
0.9720301907499852 1.0 0.0
1.156775924166146 1.0 0.0
1.33842670621592 1.0 0.0
1.517034389070868 1.0 0.0
1.69264994674003 1.0 0.0
1.865323550794866 1.0 0.0
2.035104414722059 1.0 0.0
2.202040983487818 1.0 0.0
2.366180993436638 1.0 0.0
2.527571282866703 1.0 0.0
2.686257831390245 1.0 0.0
2.842286022819771 1.0 0.0
2.995700353514032 1.0 0.0
3.146544637914273 1.0 0.0
3.294861880721452 1.0 0.0
3.440694398353104 1.0 0.0
3.58408394609007 1.0 0.0
3.725071294102791 1.0 0.0
3.863696788294668 1.0 0.0
4.136303211705004 1.0 0.0
4.274928705896546 1.0 0.0
4.415916053908917 1.0 0.0
4.55930560164552 1.0 0.0
4.7051381192768 1.0 0.0
4.853455362083593 1.0 0.0
5.004299646483437 1.0 0.0
5.157713977177285 1.0 0.0
5.313742168606385 1.0 0.0
5.472428717129489 1.0 0.0
5.6338190065591 1.0 0.0
5.797959016507455 1.0 0.0
5.96489558527273 1.0 0.0
6.134676449200184 1.0 0.0
6.307350053255487 1.0 0.0
6.482965610925135 1.0 0.0
6.661573293780584 1.0 0.0
6.843224075830887 1.0 0.0
7.027969809247587 1.0 0.0
7.215863223066262 1.0 0.0
7.4069579368396 1.0 0.0
7.601308486450315 1.0 0.0
7.798970373357896 1.0 0.0
8.0 0.7999999999999996 0.0
8.0 0.6000000000013874 0.0
8.0 0.4000000000016649 0.0
8.0 0.2000000000008324 0.0
7.798970373357898 0.0 0.0
7.601308486450317 0.0 0.0
7.406957936839601 0.0 0.0
7.215863223066265 0.0 0.0
7.02796980924759 0.0 0.0
6.843224075830888 0.0 0.0
6.661573293780592 0.0 0.0
6.482965610925139 0.0 0.0
6.307350053255492 0.0 0.0
6.134676449200188 0.0 0.0
5.964895585272735 0.0 0.0
5.797959016507459 0.0 0.0
5.633819006559103 0.0 0.0
5.472428717129493 0.0 0.0
5.313742168606389 0.0 0.0
5.157713977177288 0.0 0.0
5.004299646483441 0.0 0.0
4.853455362083597 0.0 0.0
4.705138119276803 0.0 0.0
4.559305601645523 0.0 0.0
4.415916053908919 0.0 0.0
4.274928705896549 0.0 0.0
4.136303211705007 0.0 0.0
3.863696788294383 0.0 0.0
3.725071294102209 0.0 0.0
3.584083946089184 0.0 0.0
3.440694398352564 0.0 0.0
3.29486188072223 0.0 0.0
3.146544637916415 0.0 0.0
2.995700353517581 0.0 0.0
2.842286022824779 0.0 0.0
2.68625783139676 0.0 0.0
2.527571282874774 0.0 0.0
2.366180993446318 0.0 0.0
2.202040983499156 0.0 0.0
2.035104414735112 0.0 0.0
1.865323550807426 0.0 0.0
1.692649946751479 0.0 0.0
1.517034389081164 0.0 0.0
1.338426706225015 0.0 0.0
1.156775924174005 0.0 0.0
0.9720301907565596 0.0 0.0
0.784136776937109 0.0 0.0
0.5930420631629705 0.0 0.0
0.3986915135514271 0.0 0.0
0.2010296266429896 0.0 0.0
0.0 0.199999999999558 0.0
0.0 0.3999999999989746 0.0
0.0 0.5999999999989464 0.0
0.0 0.7999999999994731 0.0
4.065082561150232 0.3648546699507293 0.0
4.117274722996153 0.4064765305061043 0.0
4.146239186965635 0.4666218605127571 0.0
4.146239186588658 0.5333781411388893 0.0
4.117274722147235 0.5935234705584039 0.0
4.065082560620447 0.6351453303044018 0.0
3.934917439190226 0.6351453302132268 0.0
3.882725277520537 0.5935234701418048 0.0
3.853760813071839 0.5333781396514286 0.0
3.853760813263242 0.4666218595099774 0.0
3.882725277782338 0.4064765295299076 0.0
3.934917439246251 0.3648546697597932 0.0
3.348071016817302 0.5037366844559412 0.0
4.65817771841185 0.4813089492125461 0.0
5.148432135339639 0.5000000000000013 0.0
2.851567863014233 0.5000000000000465 0.0
4.406326506211093 0.3072680842959042 0.0
3.575604791543614 0.6706702532911111 0.0
4.424395205595821 0.6706702556565258 0.0
3.593673497058965 0.3072680820819204 0.0
5.648652107845511 0.5000000000000006 0.0
2.351347890458042 0.4999999999998563 0.0
1.851146954963573 0.4999999999998219 0.0
6.148853043290459 0.4999999999999989 0.0
6.65089532386231 0.5241211434250735 0.0
1.349104674975677 0.4758788558671475 0.0
7.150713697794147 0.4858064203922342 0.0
0.8492863006035025 0.4858064203396458 0.0
4.216343713145164 0.2287135668575249 0.0
3.7836562881134 0.7712864338025908 0.0
4.346988371127422 0.5000000019594898 0.0
4.213775907987267 0.7756803165215952 0.0
3.653011628408684 0.4999999990051173 0.0
3.786224091202296 0.224319683220954 0.0
7.572712389010231 0.5763628491757339 0.0
0.4272876103144935 0.5763628498169726 0.0
4.881741322202974 0.3185523670790996 0.0
3.118258676783759 0.6814476337404539 0.0
3.126854924363118 0.2792890251323842 0.0
4.873145074373641 0.7207109754187309 0.0
5.398381996912613 0.291094588046412 0.0
5.396092528392672 0.7230702977293901 0.0
2.603907471650227 0.7230702981371074 0.0
2.601618001742297 0.2910945873520305 0.0
4.065645388412852 0.1903894420877926 0.0
3.934354612281609 0.8096105573695707 0.0
4.268393145079946 0.6292513280674802 0.0
3.731606853978594 0.3707486723017213 0.0
4.265062587797852 0.3723525870906427 0.0
3.734937412407246 0.6276474138958879 0.0
5.89991820844496 0.720584760457478 0.0
5.899661142431216 0.2940789491313893 0.0
2.100338856207466 0.7059210507243335 0.0
2.100081790085733 0.2794152396968363 0.0
4.648216390708278 0.2460745758417431 0.0
3.350865525112209 0.7519279174007294 0.0
3.351783614314077 0.2460745727859678 0.0
4.649134469923633 0.7519279206208029 0.0
6.386000070083336 0.2800687217561524 0.0
6.399946740387701 0.7091877900019353 0.0
1.613999929083956 0.7199312783619409 0.0
1.600053258667474 0.2908122092889953 0.0
1.099018086220021 0.3101534564461602 0.0
1.099018086220183 0.6898465435530818 0.0
6.900981912171285 0.3101534566801202 0.0
6.900981912171287 0.689846543319878 0.0
3.934891793257755 0.2336799984692873 0.0
4.065108206439434 0.7663200008196746 0.0
5.133077706310633 0.254681732561614 0.0
5.131620328745691 0.7509194919064351 0.0
2.866922291796803 0.7453182673725732 0.0
2.868379670398546 0.2490805081265555 0.0
0.5973224633027379 0.3123440263675117 0.0
7.402677535116692 0.3123440263206204 0.0
7.70928508668797 0.2984218335093966 0.0
0.2907149122204558 0.2984218350042115 0.0
2.359042531710287 0.2526358364218651 0.0
2.362552667743482 0.7498876177132479 0.0
5.640957467742433 0.2526358368965552 0.0
5.637447332034727 0.7498876177447886 0.0
7.330771635020911 0.7204300868765696 0.0
0.6692283641678903 0.7204300870263377 0.0
6.141991504218947 0.7500064293114952 0.0
6.143214654121697 0.2541610692540839 0.0
1.858008494097047 0.2499935706645152 0.0
1.856785344746094 0.7458389307817799 0.0
1.360037479834015 0.7503851535261052 0.0
1.363297687800482 0.2332108063209677 0.0
6.636702311691573 0.7667891933666813 0.0
6.639962519949044 0.2496148464378299 0.0
7.14328150074831 0.2292696686424185 0.0
0.8567184978980538 0.2292696684503961 0.0
4.845173759433459 0.5000000012080886 0.0
3.15482623877425 0.4999999993865263 0.0
3.514470413944982 0.5755907957035395 0.0
4.485529584365944 0.5755907996488695 0.0
4.350214515329574 0.8947484376274254 0.0
3.64978548377064 0.1052515623441257 0.0
4.356280753270322 0.1397878825788729 0.0
3.643719248073251 0.8602121180766233 0.0
4.157657982820168 0.3023031440803671 0.0
3.842342017851872 0.6976968563131654 0.0
4.149794964153143 0.6947625877680722 0.0
3.850205035403508 0.3052374120341299 0.0
4.252863769441745 0.5000000013253333 0.0
3.747136230269581 0.4999999993774377 0.0
2.66150837620265 0.4835883053501762 0.0
5.338491622258749 0.4835883052760253 0.0
7.732076714471282 0.7613785341653052 0.0
0.267923285219987 0.7613785345749642 0.0
3.482582425594127 0.3988584940714734 0.0
4.517417574829351 0.3988584973195787 0.0
7.120961454429095 0.7969630876933931 0.0
0.8790385446795201 0.7969630878928393 0.0
4.524178509919695 0.1937066442020419 0.0
3.472973035782958 0.803602443762734 0.0
4.527026959328886 0.8036024455277256 0.0
3.475821495314308 0.1937066425220846 0.0
5.834485749168302 0.4775259269822466 0.0
2.16551424934095 0.5224740729963462 0.0
4.803832126993392 0.8343163881584211 0.0
3.196167871756218 0.1656836120733276 0.0
3.196167870279283 0.834316388182051 0.0
4.803832130306974 0.1656836112805605 0.0
1.646902821176459 0.5088844228822333 0.0
6.35309717778631 0.4911155766888507 0.0
4.128745436683365 0.8608937921704661 0.0
3.871254562700506 0.1391062074145501 0.0
7.783519314041498 0.4824599318584197 0.0
0.2164806854160975 0.4824599323519634 0.0
3.981228286637499 0.1341601386487245 0.0
4.018771713398118 0.8658398609794804 0.0
4.757705393330306 0.6277793253200102 0.0
3.245404476813698 0.3720431195654205 0.0
3.262406961538709 0.609092082228193 0.0
4.738552632749474 0.3854106153034425 0.0
4.980576921401999 0.1828043249223437 0.0
3.019423077460087 0.8171956749482756 0.0
4.975386875116307 0.8288560892267683 0.0
3.024613123995747 0.1711439108946455 0.0
7.537862127958827 0.7914398748884439 0.0
0.46213787149577 0.7914398749623154 0.0
4.150965283491015 0.1232311208167031 0.0
3.849034718225983 0.8767688792466098 0.0
0.6330166515036239 0.5212993800799176 0.0
7.366983347335347 0.5212993798709434 0.0
5.001451172914062 0.4591396125040952 0.0
2.998548825585332 0.5408603877155073 0.0
5.250532135494552 0.1623854812497458 0.0
5.24999687257574 0.8404382486850067 0.0
2.749794930508214 0.8396380739052673 0.0
2.749676059914328 0.161585306286623 0.0
1.150631951549359 0.5017906253149568 0.0
6.85747267660715 0.5137706215776152 0.0
2.938770240933895 0.3859183074771494 0.0
5.061229757952985 0.6140816927005173 0.0
5.521883200863776 0.8371838481144578 0.0
5.520780843451154 0.1567733764659754 0.0
2.479219155991939 0.1567733759623464 0.0
2.478116798894765 0.8371838481096507 0.0
2.208224060227917 0.1725929992863016 0.0
2.214655190115911 0.821187355218689 0.0
5.791775938918927 0.8274070011383262 0.0
5.785558009721889 0.1789659155514431 0.0
5.243140500145841 0.3651007420679131 0.0
5.247758683472709 0.6318228659349833 0.0
2.748336099792684 0.6332079670712092 0.0
2.766145970608876 0.3583112578457802 0.0
2.500794992947401 0.4517155340697119 0.0
5.499205006433885 0.4517155344186723 0.0
3.472119223331378 0.69283875816516 0.0
4.527880773131323 0.6928387614752662 0.0
2.445947440949104 0.6396216022327238 0.0
5.554052558509333 0.6396216019605415 0.0
[...]
POINT_DATA 494

VECTORS Velocity float
0.0000000000000000 0.0000000000000000 0.0
0.8244188179969687 -0.1302541336504596 0.0
0.0000000000000000 0.0000000000000000 0.0
0.0000000000000000 0.0000000000000000 0.0
0.0000000000000000 0.0000000000000000 0.0
0.0000000000000000 0.0000000000000000 0.0
0.0000000000000000 0.0000000000000000 0.0
0.0000000000000000 0.0000000000000000 0.0
0.0000000000000000 0.0000000000000000 0.0
0.0000000000000000 0.0000000000000000 0.0
0.0000000000000000 0.0000000000000000 0.0
0.0000000000000000 0.0000000000000000 0.0
0.0000000000000000 0.0000000000000000 0.0
0.0000000000000000 0.0000000000000000 0.0
0.0000000000000000 0.0000000000000000 0.0
0.0000000000000000 0.0000000000000000 0.0
0.0000000000000000 0.0000000000000000 0.0
0.0000000000000000 0.0000000000000000 0.0
0.0000000000000000 0.0000000000000000 0.0
0.0000000000000000 0.0000000000000000 0.0
0.0000000000000000 0.0000000000000000 0.0
0.0000000000000000 0.0000000000000000 0.0
0.0000000000000000 0.0000000000000000 0.0
0.0000000000000000 0.0000000000000000 0.0
0.0000000000000000 0.0000000000000000 0.0
0.0000000000000000 0.0000000000000000 0.0
0.0000000000000000 0.0000000000000000 0.0
0.0000000000000000 0.0000000000000000 0.0
0.0000000000000000 0.0000000000000000 0.0
0.0000000000000000 0.0000000000000000 0.0
0.0000000000000000 0.0000000000000000 0.0
0.0000000000000000 0.0000000000000000 0.0
0.0000000000000000 0.0000000000000000 0.0
0.0000000000000000 0.0000000000000000 0.0
0.0000000000000000 0.0000000000000000 0.0
0.0000000000000000 0.0000000000000000 0.0
0.0000000000000000 0.0000000000000000 0.0
0.0000000000000000 0.0000000000000000 0.0
0.0000000000000000 0.0000000000000000 0.0
0.0000000000000000 0.0000000000000000 0.0
0.0000000000000000 0.0000000000000000 0.0
0.0000000000000000 0.0000000000000000 0.0
0.0000000000000000 0.0000000000000000 0.0
0.0000000000000000 0.0000000000000000 0.0
0.0000000000000000 0.0000000000000000 0.0
0.0000000000000000 0.0000000000000000 0.0
0.0000000000000000 0.0000000000000000 0.0
0.0000000000000000 0.0000000000000000 0.0
0.0000000000000000 0.0000000000000000 0.0
0.0000000000000000 0.0000000000000000 0.0
0.0000000000000000 0.0000000000000000 0.0
0.0000000000000000 0.0000000000000000 0.0
0.0000000000000000 0.0000000000000000 0.0
0.0000000000000000 0.0000000000000000 0.0
1.0836378989944599 0.5058782619361718 0.0
0.9924736911034000 0.1122042989955324 0.0
0.9665243206957117 -0.0790156830819924 0.0
1.0640370663715182 -0.4254662749684601 0.0
0.0000000000000000 0.0000000000000000 0.0
0.0000000000000000 0.0000000000000000 0.0
0.0000000000000000 0.0000000000000000 0.0
0.0000000000000000 0.0000000000000000 0.0
0.0000000000000000 0.0000000000000000 0.0
0.0000000000000000 0.0000000000000000 0.0
0.0000000000000000 0.0000000000000000 0.0
0.0000000000000000 0.0000000000000000 0.0
0.0000000000000000 0.0000000000000000 0.0
0.0000000000000000 0.0000000000000000 0.0
0.0000000000000000 0.0000000000000000 0.0
0.0000000000000000 0.0000000000000000 0.0
0.0000000000000000 0.0000000000000000 0.0
0.0000000000000000 0.0000000000000000 0.0
0.0000000000000000 0.0000000000000000 0.0
0.0000000000000000 0.0000000000000000 0.0
0.0000000000000000 0.0000000000000000 0.0
0.0000000000000000 0.0000000000000000 0.0
0.0000000000000000 0.0000000000000000 0.0
0.0000000000000000 0.0000000000000000 0.0
0.0000000000000000 0.0000000000000000 0.0
0.0000000000000000 0.0000000000000000 0.0
0.0000000000000000 0.0000000000000000 0.0
0.0000000000000000 0.0000000000000000 0.0
0.0000000000000000 0.0000000000000000 0.0
0.0000000000000000 0.0000000000000000 0.0
0.0000000000000000 0.0000000000000000 0.0
0.0000000000000000 0.0000000000000000 0.0
0.0000000000000000 0.0000000000000000 0.0
0.0000000000000000 0.0000000000000000 0.0
0.0000000000000000 0.0000000000000000 0.0
0.0000000000000000 0.0000000000000000 0.0
0.0000000000000000 0.0000000000000000 0.0
0.0000000000000000 0.0000000000000000 0.0
0.0000000000000000 0.0000000000000000 0.0
0.0000000000000000 0.0000000000000000 0.0
0.0000000000000000 0.0000000000000000 0.0
0.0000000000000000 0.0000000000000000 0.0
0.0000000000000000 0.0000000000000000 0.0
0.0000000000000000 0.0000000000000000 0.0
0.0000000000000000 0.0000000000000000 0.0
0.0000000000000000 0.0000000000000000 0.0
0.0000000000000000 0.0000000000000000 0.0
0.0000000000000000 0.0000000000000000 0.0
0.0000000000000000 0.0000000000000000 0.0
0.0000000000000000 0.0000000000000000 0.0
1.0000000000000000 0.0000000000000000 0.0
1.0000000000000000 0.0000000000000000 0.0
1.0000000000000000 0.0000000000000000 0.0
1.0000000000000000 0.0000000000000000 0.0
0.0000000000000000 0.0000000000000000 0.0
0.0000000000000000 0.0000000000000000 0.0
0.0000000000000000 0.0000000000000000 0.0
0.0000000000000000 0.0000000000000000 0.0
0.0000000000000000 0.0000000000000000 0.0
0.0000000000000000 0.0000000000000000 0.0
0.0000000000000000 0.0000000000000000 0.0
0.0000000000000000 0.0000000000000000 0.0
0.0000000000000000 0.0000000000000000 0.0
0.0000000000000000 0.0000000000000000 0.0
0.0000000000000000 0.0000000000000000 0.0
0.0000000000000000 0.0000000000000000 0.0
1.3433870657043905 0.0047354483050031 0.0
1.3449419816222821 0.0101518908351999 0.0
1.4570288256748161 -0.0034440503817692 0.0
1.4566315848711560 -0.0109149612979841 0.0
1.3400324966380375 0.0149946336172340 0.0
1.3339877730091314 0.0256147795845748 0.0
1.3255664883196554 -0.0730228371670583 0.0
1.3276276282064148 -0.0713156586208209 0.0
1.4566859631711846 0.0074564407616776 0.0
1.4548768140563335 -0.0059298096715317 0.0
1.4375382657647668 0.0064703825624685 0.0
1.4365896971890495 0.0034586908016717 0.0
1.4611387550822752 -0.0166449570576993 0.0
1.4630354064960804 0.0046324738783399 0.0
1.5319866620950000 0.0070957661121688 0.0
1.5295582315215279 -0.0143273500725268 0.0
1.3646539976064547 0.2130567156133570 0.0
1.3610116682772322 0.2147947975497028 0.0
1.1861686473696333 0.0114409785235018 0.0
1.4008559795896562 -0.1512495874792603 0.0
1.1855104764870454 0.0100428224298286 0.0
1.4053224208354209 -0.1486947298283623 0.0
1.4964884188477889 0.0162794561838859 0.0
1.4867440308321009 -0.0317416806431817 0.0
1.3290587639985851 0.0217193792548227 0.0
1.3212642192690613 0.0203989723503238 0.0
1.3111770126342537 -0.0119781961707035 0.0
1.2992011118516511 -0.0097502865863928 0.0
1.3227635192645038 0.0021326632405856 0.0
1.2654674510010790 -0.0110259828357882 0.0
1.2528212713565468 0.0078426766935563 0.0
1.3315233588790805 -0.0037761742089555 0.0
1.4624837697257840 0.1184238194679657 0.0
1.4623173514854044 0.1180467523501608 0.0
1.2993727276062026 -0.1938433188184293 0.0
1.3004343236152520 -0.1898664496234604 0.0
1.3605302315577150 0.2357174785625802 0.0
1.3566597332069581 0.2443122132282473 0.0
1.2348945062055026 -0.0335417754679853 0.0
1.3038076251027877 0.0080000659836047 0.0
1.2942399957484394 0.0080053861336034 0.0
1.2435323113860861 -0.0312931927098057 0.0
1.1803707027487171 -0.0281732833823524 0.0
1.1710377777404115 -0.0242768738643254 0.0
1.1930227884786089 0.0075944112579610 0.0
1.1842848992696799 0.0012945650730257 0.0
1.2591358121954734 0.0035919898591240 0.0
1.2392210748369281 -0.0124114697269777 0.0
1.2477948257134992 0.0073817263425573 0.0
1.2494335239618539 -0.0072985134180638 0.0
1.4214808820528630 -0.0091497819416469 0.0
1.3373081901374222 0.0539993456704657 0.0
1.4200159721751353 0.0105755047989197 0.0
1.3371731572089869 -0.0509069625754710 0.0
1.5716535058832897 -0.1758702602505330 0.0
1.5708978923634245 -0.1771129423798725 0.0
1.2344001157130571 -0.0156174277295070 0.0
1.2439484868920736 0.0137184431628440 0.0
1.2231387380487448 -0.0226933012165921 0.0
1.2523656955138935 0.0033784390242004 0.0
1.4191997937946792 0.0018730006074599 0.0
1.4249504699342230 -0.0027499203484142 0.0
1.2927302221947483 -0.1491400207026625 0.0
1.2865216822117416 0.1740188509809532 0.0
1.2484256934303402 0.0495843552031973 0.0
1.2154155991076985 -0.0131987154351637 0.0
1.2433862773575850 -0.0361251633738585 0.0
1.2250665835397829 0.0344750604928175 0.0
1.2961790678477438 -0.0004660404050044 0.0
1.2981788910926271 -0.0040180552040253 0.0
1.2171631526971269 0.0394336980708011 0.0
1.2557463523771817 -0.0541018511842715 0.0
1.2273617507081804 0.0412780107938472 0.0
1.2456086896481056 -0.0527997959753951 0.0
1.2211839048881270 0.0636472836014035 0.0
1.1987719002583739 -0.0509850010428015 0.0
1.1790575448992755 -0.0629107909675189 0.0
1.2391119728008486 0.0537128811569148 0.0
1.1754163900317158 -0.0160260299721716 0.0
1.1754008947102754 0.0122565131033590 0.0
1.3967794374189959 0.0119507098819639 0.0
1.3959466887372418 0.0075777586272979 0.0
1.3015988693549809 0.0336164861493053 0.0
1.2953258136276322 -0.0403569840944157 0.0
0.5949579128887503 -0.0015027292953504 0.0
0.5838879810739788 -0.0011329610338576 0.0
0.6900333532091868 0.0896200948754688 0.0
0.7004469504203543 0.0896900694296347 0.0
1.4206121104133449 0.3587914043499270 0.0
1.4190984841338616 0.3608391459907733 0.0
1.4737083670521294 -0.2778788228261887 0.0
1.4737158668033365 -0.2745984307002002 0.0
0.9429231825562076 0.0050254482586394 0.0
0.9431335787872070 0.0190427493875958 0.0
1.4743932116993868 0.0143204001941989 0.0
1.4719221593194831 -0.0197657252616736 0.0
1.1905154233388602 0.1844849646777104 0.0
1.2125695958039575 -0.2536440084587236 0.0
1.3078142782562552 -0.0315131794189266 0.0
1.3124070394916525 0.0215791664440198 0.0
0.7955062685418620 -0.0081164546041446 0.0
0.8089622531114264 0.0067542352691866 0.0
1.0828317397573657 -0.0159085961706299 0.0
1.0765122322722380 -0.0220256293003629 0.0
1.0884347087507853 -0.0008842021170385 0.0
1.0976550982947142 -0.0041518130805504 0.0
1.4470046554323208 -0.0120384917344311 0.0
1.4448240181403413 -0.0211143835421650 0.0
0.7866499353535280 -0.0859255893579253 0.0
0.7928922134869677 -0.0863177389834565 0.0
0.8291725747961767 0.0734630354690937 0.0
0.8363629053418341 0.0726345740432966 0.0
1.4071662461851742 0.0219040949535792 0.0
1.4077647614886923 0.0187828298584949 0.0
0.9437054189254502 -0.0831552078829034 0.0
0.9458691250349740 -0.0845377252223848 0.0
1.3072794124339560 -0.0029678748049034 0.0
1.2472247518683792 0.0143518354868646 0.0
1.0136434366601028 -0.0728342017789785 0.0
1.0137280037321614 -0.0730462303494052 0.0
1.3797523377704852 -0.0358318151402415 0.0
1.3899109728176224 -0.0393055777645994 0.0
1.3526151428018345 0.0502204438379565 0.0
1.3599056641812641 0.0548692515828893 0.0
0.8676167643896704 0.0035536876538560 0.0
0.8632009870139962 0.0029421680081379 0.0
0.8206938417553685 0.0085047206607884 0.0
0.8186663815985219 0.0064428362202149 0.0
0.8551195545812162 0.0286425415509559 0.0
0.8703164522175298 -0.0493238012614841 0.0
0.7852097882928806 0.0572583286614701 0.0
0.7851228720844357 0.0566170830184844 0.0
1.4900873586227983 -0.0188830407728090 0.0
1.4962316458745242 0.0128185100079259 0.0
1.4128559017508828 -0.0096778783865549 0.0
1.4114107148429789 -0.0134364428179122 0.0
0.7803681061622983 0.0035554769225782 0.0
0.7913641518640755 0.0120642665386836 0.0
0.7820306597706724 -0.0054382823569912 0.0
0.7787805027615190 0.0050929801354120 0.0
1.5131930369004587 0.0080514209367132 0.0
1.5163795188302467 -0.0423243495596497 0.0
1.3896077232088440 -0.0371599980540300 0.0
1.3831135637852452 -0.0336459855347197 0.0
0.7774538583986310 -0.0091101029613550 0.0
0.7117907840973859 0.0143756628466808 0.0
0.7188114255086940 -0.0147312949569348 0.0
0.7684245980115159 0.0083453804769851 0.0
0.8725365968248371 0.0305057382811147 0.0
0.8515302934275546 -0.0186911763830392 0.0
0.8741681676318009 0.0218363418526991 0.0
0.8613236704120735 -0.0255069301635594 0.0
1.3796678057866003 0.0200016261479681 0.0
1.3796753451189665 -0.0146143749851105 0.0
1.3733744364013323 0.0101125642529588 0.0
1.3855169433444630 -0.0249516784528618 0.0
1.4557726817218668 0.0146972431489004 0.0
1.4516780311645376 -0.0168256615570051 0.0
1.3074730805506505 0.0162443317556989 0.0
1.3161864590376147 -0.0356728635874302 0.0
1.3685317205282526 -0.0021769625326924 0.0
1.3695723834275169 0.0001310048428317 0.0
0.7892576841113735 -0.0198015151436233 0.0
0.7273459047337636 0.0247685695890598 0.0
0.7843645648006505 -0.0210795159031962 0.0
0.7330869922724583 0.0247690375983418 0.0
0.6425277219993579 -0.0995405336778038 0.0
0.6427435246579967 -0.0954227027126065 0.0
1.2730415312193464 0.0940699300346481 0.0
1.2729482467163624 0.0941018020848324 0.0
1.3643924478304092 -0.0071604586991556 0.0
1.3391411310415355 -0.0164917378303456 0.0
1.3394068344816688 0.0170697509993751 0.0
1.3695092874377299 0.0093245520006418 0.0
0.8274613223376329 -0.0545311712038329 0.0
0.8261532016913705 0.0585980787670874 0.0
1.0558891188904851 -0.1089861054450666 0.0
1.0521328402911820 -0.0989228863276282 0.0
1.0716854733689325 0.1384866244171843 0.0
1.0712233058031826 0.1455077691473864 0.0
0.8898922619101475 -0.0401996599493522 0.0
0.8688181011348587 0.0516817468798815 0.0
0.8812013692020619 -0.0376999666737448 0.0
0.8780257835941814 0.0548068577304326 0.0
1.4416751725897283 -0.0135720227207029 0.0
1.4397360432287747 -0.0137428739208130 0.0
0.7390984810003908 -0.0196559569118931 0.0
0.7635551071437052 0.0018398111916298 0.0
0.7209871201227136 0.0181848748149477 0.0
0.7747909154757449 0.0347604913910850 0.0
0.7198022194420187 -0.0086425283854813 0.0
0.7217124054896810 0.0069302675207934 0.0
1.3661847589493237 -0.1274769287092259 0.0
1.3590596818591643 -0.1293245849783039 0.0
1.3222769640444736 0.1715795450332206 0.0
1.3163397487407236 0.1652596312105152 0.0
0.6119504546606197 -0.0519296352682646 0.0
0.6114801311247064 -0.0522516882390941 0.0
0.6226143856186735 0.0494000438182431 0.0
0.6230755445193653 0.0483565611845623 0.0
1.3663778871131382 -0.0045991084646071 0.0
1.3741871731720414 -0.0011905996277562 0.0
1.2555416823805332 -0.0918947357444134 0.0
1.2587112534013523 -0.0928271873600739 0.0
1.3104920037552563 0.0908286892921562 0.0
1.3071815743969724 0.0928320807799458 0.0
0.8970981111324531 0.0381603356157916 0.0
0.8178715961402718 -0.0957944776320978 0.0
0.8872075712055034 0.0443403142416077 0.0
0.8296668370155885 -0.0878772507555547 0.0
1.3528212204598140 -0.0265907299864083 0.0
1.3285201621045810 0.0313524220649408 0.0
1.3445559719067444 -0.0242465076606966 0.0
1.3359418523017064 0.0339457616642230 0.0
1.4157680363970555 -0.0048069650724500 0.0
1.4131641520617269 -0.0107061774384490 0.0
0.7087585190422530 -0.0055944176228901 0.0
0.7154097023209204 0.0105266977757310 0.0
1.3460771034949508 0.0501330524515592 0.0
1.3516503494070127 0.0436738749179691 0.0
1.4678879676779231 -0.0350616470565896 0.0
1.4543336568716221 0.0345097712337343 0.0
0.7887946706528612 0.0525802051155724 0.0
0.7841863114688775 0.0562590848748160 0.0
1.4070727861478642 -0.0375843224133799 0.0
1.3840561151233175 0.0374538779786540 0.0
1.3876179325256566 -0.0533124342348343 0.0
1.4036942721637966 0.0172988012745233 0.0
1.5163661344791239 -0.0156332607494927 0.0
1.5279175454105975 0.0095056488585898 0.0
0.5595957183776751 -0.0036163142959490 0.0
0.5614771053547374 0.0048557459526083 0.0
1.4629592499938147 -0.0127160183816041 0.0
1.4648291161100653 0.0118598170478380 0.0
0.9479548449845119 0.2195758204160468 0.0
0.9232623645322274 -0.2138774767576098 0.0
1.2652055506320654 -0.0068255741305885 0.0
1.2695580378446798 0.0049149631371147 0.0
1.3196961267668372 0.0173436217419001 0.0
1.3294956034582353 -0.0387697894503583 0.0
1.3215875630487568 0.0085994879334194 0.0
1.3160497264192006 0.0054770940182129 0.0
1.1768122733484432 -0.0883524427979965 0.0
1.1778742357036238 -0.0895724579187486 0.0
1.3303646199554451 -0.0316435647436339 0.0
1.3136343869039939 0.0268287958752688 0.0
1.4129988905007795 -0.0029590091125906 0.0
1.4074663676286847 0.0009940670300642 0.0
1.3361232481217200 -0.0353310273657993 0.0
1.3195977086983748 0.0301362333164981 0.0
0.5085601808899105 0.0668169696274105 0.0
0.5081206132483130 0.0638586903340942 0.0
0.5034193438114755 -0.0506380325837331 0.0
0.5017389822905266 -0.0527742541199875 0.0
1.4223876520214891 -0.2420710997173652 0.0
1.4233153853651617 -0.2408027494668938 0.0
0.4563768154917374 0.0019216326129221 0.0
0.4612142670476809 -0.0047205365638007 0.0
1.5191927210863196 0.2494214959329907 0.0
1.5191387147944444 0.2498358349473969 0.0
0.6029324462892107 0.0927200375751078 0.0
0.6033288463878940 0.0923252697163713 0.0
1.4641647473944468 0.0147090129256980 0.0
1.4632884526660708 -0.0155105236804753 0.0
1.3272447503743301 -0.0278109260509759 0.0
1.3323673172328503 0.0311207453338230 0.0
1.3713912644035622 -0.2400107874463626 0.0
1.3710272031051396 -0.2478855426051045 0.0
1.3462853734932336 0.3499416880538252 0.0
1.3510523668580079 0.3398376426483944 0.0
1.4060926537428085 -0.0026154749743578 0.0
1.4117917028863709 -0.0057139934637414 0.0
0.5470091608220748 0.0646707347385166 0.0
0.5273866833801704 -0.0686717351359058 0.0
0.5348477228208220 0.0649442695756699 0.0
0.5393432119639608 -0.0674807199863809 0.0
0.5089140453005758 0.0232003799199362 0.0
0.5220040697165966 0.0229759046526328 0.0
0.5602347096576492 -0.0130507426080164 0.0
0.5735594514299984 -0.0144932937208494 0.0
1.1174203923911070 -0.1498125741344200 0.0
1.1239464768291014 -0.1418586767470723 0.0
1.1429861464286970 0.1747383900666673 0.0
1.1375051181006401 0.1830118853933745 0.0
1.1911495222348008 -0.2481652757151306 0.0
1.1759872338454784 0.2489325348622584 0.0
1.3738603467236292 0.0263103270853312 0.0
1.3706116619798787 0.0252614815069158 0.0
0.5706593288601576 -0.0047108547611923 0.0
0.5410118646163096 0.0004896859237185 0.0
0.5756658810887553 0.0068767122374399 0.0
0.5469511783205062 0.0018083482108332 0.0
1.4012304410585650 -0.0016223202279335 0.0
1.3984634060923078 -0.0009608305262835 0.0
1.3188172491911272 -0.0171618387646710 0.0
1.3274767696755170 -0.0186448939389418 0.0
0.8971266488924596 0.2517287889117502 0.0
0.9450953099550972 -0.2370165755463462 0.0
1.1292402704796041 0.0888331196603421 0.0
1.1235776849121000 0.0910916676580258 0.0
1.1431871031792520 -0.1159634632247205 0.0
1.1338951598273725 -0.1154838151714655 0.0
0.6629510991530272 -0.1265489527206225 0.0
0.6688770198547470 0.1287945296241252 0.0
0.3762530936734944 -0.0221724909253404 0.0
0.3753517047653121 -0.0211537123298130 0.0
0.3818373522892145 -0.0107951498858389 0.0
0.3835178491791867 -0.0108100970939355 0.0
0.4172821904211543 -0.0094545176316295 0.0
0.4184730122813208 0.0096987668162415 0.0
1.2137105134878965 0.2879702907031181 0.0
1.1699949371194092 -0.2421894144149241 0.0
0.5528560663483705 -0.0636546009903153 0.0
0.5471870659105684 0.0772568180861562 0.0
0.5477594149054867 -0.0624922293296297 0.0
0.5523944399397233 0.0789309315420992 0.0
1.4538211578077684 0.0329845960700314 0.0
1.4600480773253732 -0.0432691003630806 0.0
0.4906721852316364 0.0657918086245162 0.0
0.5444136841707237 -0.1090550824382547 0.0
0.9287946417766535 0.0230999123851617 0.0
0.9283398862558717 0.0245857993282364 0.0
0.9342380442002518 -0.0188620573334529 0.0
0.9331318072020321 -0.0166866359683313 0.0
0.8632555915630110 0.0107229783550402 0.0
0.8636255665286621 0.0206560032506005 0.0
0.5938261032524186 0.0587706990891870 0.0
0.5610601708993013 -0.0661398344516617 0.0
0.5893169708803121 0.0581113439620703 0.0
0.5643262729460974 -0.0669971118205624 0.0
1.4279603476387417 -0.0017039762257612 0.0
1.4269317342442422 -0.0020494729865803 0.0
0.4881638041632742 -0.0773043085050695 0.0
0.5206064893086915 0.0515353838497845 0.0
0.5095848854365146 0.0634936556415884 0.0
0.5006765256402692 -0.0643311135229368 0.0
1.1777966130886672 -0.0006432328183634 0.0
1.1881363178140345 0.0065634226232834 0.0
1.2038389744473124 -0.0350814113616341 0.0
1.2037664006918281 -0.0325341991720995 0.0
1.3213734646724509 -0.0142405847684054 0.0
1.3135869067007142 -0.0087320809632421 0.0
1.3219093807767130 -0.0464013834071461 0.0
1.3272830043074810 -0.0389517922224289 0.0
1.1837314696698729 -0.0645490999823393 0.0
1.1912728650734550 -0.0644407273399200 0.0
0.5855791082573335 -0.0016690056395839 0.0
0.5722441750599067 0.0038162566607022 0.0
0.5800643334097219 0.0019551299668114 0.0
0.5771563654677251 -0.0035928736634571 0.0