# vtk DataFile Version 3.0
LucasCarvalhoTCC Results
ASCII

DATASET POLYDATA
FIELD FieldData 1
TIME 1 1 double
0.6000000000000001

POINTS 494 float
0.0 0.0 0.0
8.0 0.0 0.0
8.0 1.0 0.0
0.0 1.0 0.0
4.0 0.0 0.0
4.0 1.0 0.0
4.0 0.35 0.0
4.0 0.65 0.0
0.2010296266416496 1.0 0.0
0.3986915135488555 1.0 0.0
0.5930420631591132 1.0 0.0
0.7841367769318693 1.0 0.0
0.9720301907499852 1.0 0.0
1.156775924166146 1.0 0.0
1.33842670621592 1.0 0.0
1.517034389070868 1.0 0.0
1.69264994674003 1.0 0.0
1.865323550794866 1.0 0.0
2.035104414722059 1.0 0.0
2.202040983487818 1.0 0.0
2.366180993436638 1.0 0.0
2.527571282866703 1.0 0.0
2.686257831390245 1.0 0.0
2.842286022819771 1.0 0.0
2.995700353514032 1.0 0.0
3.146544637914273 1.0 0.0
3.294861880721452 1.0 0.0
3.440694398353104 1.0 0.0
3.58408394609007 1.0 0.0
3.725071294102791 1.0 0.0
3.863696788294668 1.0 0.0
4.136303211705004 1.0 0.0
4.274928705896546 1.0 0.0
4.415916053908917 1.0 0.0
4.55930560164552 1.0 0.0
4.7051381192768 1.0 0.0
4.853455362083593 1.0 0.0
5.004299646483437 1.0 0.0
5.157713977177285 1.0 0.0
5.313742168606385 1.0 0.0
5.472428717129489 1.0 0.0
5.6338190065591 1.0 0.0
5.797959016507455 1.0 0.0
5.96489558527273 1.0 0.0
6.134676449200184 1.0 0.0
6.307350053255487 1.0 0.0
6.482965610925135 1.0 0.0
6.661573293780584 1.0 0.0
6.843224075830887 1.0 0.0
7.027969809247587 1.0 0.0
7.215863223066262 1.0 0.0
7.4069579368396 1.0 0.0
7.601308486450315 1.0 0.0
7.798970373357896 1.0 0.0
8.0 0.7999999999999996 0.0
8.0 0.6000000000013874 0.0
8.0 0.4000000000016649 0.0
8.0 0.2000000000008324 0.0
7.798970373357898 0.0 0.0
7.601308486450317 0.0 0.0
7.406957936839601 0.0 0.0
7.215863223066265 0.0 0.0
7.02796980924759 0.0 0.0
6.843224075830888 0.0 0.0
6.661573293780592 0.0 0.0
6.482965610925139 0.0 0.0
6.307350053255492 0.0 0.0
6.134676449200188 0.0 0.0
5.964895585272735 0.0 0.0
5.797959016507459 0.0 0.0
5.633819006559103 0.0 0.0
5.472428717129493 0.0 0.0
5.313742168606389 0.0 0.0
5.157713977177288 0.0 0.0
5.004299646483441 0.0 0.0
4.853455362083597 0.0 0.0
4.705138119276803 0.0 0.0
4.559305601645523 0.0 0.0
4.415916053908919 0.0 0.0
4.274928705896549 0.0 0.0
4.136303211705007 0.0 0.0
3.863696788294383 0.0 0.0
3.725071294102209 0.0 0.0
3.584083946089184 0.0 0.0
3.440694398352564 0.0 0.0
3.29486188072223 0.0 0.0
3.146544637916415 0.0 0.0
2.995700353517581 0.0 0.0
2.842286022824779 0.0 0.0
2.68625783139676 0.0 0.0
2.527571282874774 0.0 0.0
2.366180993446318 0.0 0.0
2.202040983499156 0.0 0.0
2.035104414735112 0.0 0.0
1.865323550807426 0.0 0.0
1.692649946751479 0.0 0.0
1.517034389081164 0.0 0.0
1.338426706225015 0.0 0.0
1.156775924174005 0.0 0.0
0.9720301907565596 0.0 0.0
0.784136776937109 0.0 0.0
0.5930420631629705 0.0 0.0
0.3986915135514271 0.0 0.0
0.2010296266429896 0.0 0.0
0.0 0.199999999999558 0.0
0.0 0.3999999999989746 0.0
0.0 0.5999999999989464 0.0
0.0 0.7999999999994731 0.0
4.065082561150232 0.3648546699507293 0.0
4.117274722996153 0.4064765305061043 0.0
4.146239186965635 0.4666218605127571 0.0
4.146239186588658 0.5333781411388893 0.0
4.117274722147235 0.5935234705584039 0.0
4.065082560620447 0.6351453303044018 0.0
3.934917439190226 0.6351453302132268 0.0
3.882725277520537 0.5935234701418048 0.0
3.853760813071839 0.5333781396514286 0.0
3.853760813263242 0.4666218595099774 0.0
3.882725277782338 0.4064765295299076 0.0
3.934917439246251 0.3648546697597932 0.0
3.348071016817302 0.5037366844559412 0.0
4.65817771841185 0.4813089492125461 0.0
5.148432135339639 0.5000000000000013 0.0
2.851567863014233 0.5000000000000465 0.0
4.406326506211093 0.3072680842959042 0.0
3.575604791543614 0.6706702532911111 0.0
4.424395205595821 0.6706702556565258 0.0
3.593673497058965 0.3072680820819204 0.0
5.648652107845511 0.5000000000000006 0.0
2.351347890458042 0.4999999999998563 0.0
1.851146954963573 0.4999999999998219 0.0
6.148853043290459 0.4999999999999989 0.0
6.65089532386231 0.5241211434250735 0.0
1.349104674975677 0.4758788558671475 0.0
7.150713697794147 0.4858064203922342 0.0
0.8492863006035025 0.4858064203396458 0.0
4.216343713145164 0.2287135668575249 0.0
3.7836562881134 0.7712864338025908 0.0
4.346988371127422 0.5000000019594898 0.0
4.213775907987267 0.7756803165215952 0.0
3.653011628408684 0.4999999990051173 0.0
3.786224091202296 0.224319683220954 0.0
7.572712389010231 0.5763628491757339 0.0
0.4272876103144935 0.5763628498169726 0.0
4.881741322202974 0.3185523670790996 0.0
3.118258676783759 0.6814476337404539 0.0
3.126854924363118 0.2792890251323842 0.0
4.873145074373641 0.7207109754187309 0.0
5.398381996912613 0.291094588046412 0.0
5.396092528392672 0.7230702977293901 0.0
2.603907471650227 0.7230702981371074 0.0
2.601618001742297 0.2910945873520305 0.0
4.065645388412852 0.1903894420877926 0.0
3.934354612281609 0.8096105573695707 0.0
4.268393145079946 0.6292513280674802 0.0
3.731606853978594 0.3707486723017213 0.0
4.265062587797852 0.3723525870906427 0.0
3.734937412407246 0.6276474138958879 0.0
5.89991820844496 0.720584760457478 0.0
5.899661142431216 0.2940789491313893 0.0
2.100338856207466 0.7059210507243335 0.0
2.100081790085733 0.2794152396968363 0.0
4.648216390708278 0.2460745758417431 0.0
3.350865525112209 0.7519279174007294 0.0
3.351783614314077 0.2460745727859678 0.0
4.649134469923633 0.7519279206208029 0.0
6.386000070083336 0.2800687217561524 0.0
6.399946740387701 0.7091877900019353 0.0
1.613999929083956 0.7199312783619409 0.0
1.600053258667474 0.2908122092889953 0.0
1.099018086220021 0.3101534564461602 0.0
1.099018086220183 0.6898465435530818 0.0
6.900981912171285 0.3101534566801202 0.0
6.900981912171287 0.689846543319878 0.0
3.934891793257755 0.2336799984692873 0.0
4.065108206439434 0.7663200008196746 0.0
5.133077706310633 0.254681732561614 0.0
5.131620328745691 0.7509194919064351 0.0
2.866922291796803 0.7453182673725732 0.0
2.868379670398546 0.2490805081265555 0.0
0.5973224633027379 0.3123440263675117 0.0
7.402677535116692 0.3123440263206204 0.0
7.70928508668797 0.2984218335093966 0.0
0.2907149122204558 0.2984218350042115 0.0
2.359042531710287 0.2526358364218651 0.0
2.362552667743482 0.7498876177132479 0.0
5.640957467742433 0.2526358368965552 0.0
5.637447332034727 0.7498876177447886 0.0
7.330771635020911 0.7204300868765696 0.0
0.6692283641678903 0.7204300870263377 0.0
6.141991504218947 0.7500064293114952 0.0
6.143214654121697 0.2541610692540839 0.0
1.858008494097047 0.2499935706645152 0.0
1.856785344746094 0.7458389307817799 0.0
1.360037479834015 0.7503851535261052 0.0
1.363297687800482 0.2332108063209677 0.0
6.636702311691573 0.7667891933666813 0.0
6.639962519949044 0.2496148464378299 0.0
7.14328150074831 0.2292696686424185 0.0
0.8567184978980538 0.2292696684503961 0.0
4.845173759433459 0.5000000012080886 0.0
3.15482623877425 0.4999999993865263 0.0
3.514470413944982 0.5755907957035395 0.0
4.485529584365944 0.5755907996488695 0.0
4.350214515329574 0.8947484376274254 0.0
3.64978548377064 0.1052515623441257 0.0
4.356280753270322 0.1397878825788729 0.0
3.643719248073251 0.8602121180766233 0.0
4.157657982820168 0.3023031440803671 0.0
3.842342017851872 0.6976968563131654 0.0
4.149794964153143 0.6947625877680722 0.0
3.850205035403508 0.3052374120341299 0.0
4.252863769441745 0.5000000013253333 0.0
3.747136230269581 0.4999999993774377 0.0
2.66150837620265 0.4835883053501762 0.0
5.338491622258749 0.4835883052760253 0.0
7.732076714471282 0.7613785341653052 0.0
0.267923285219987 0.7613785345749642 0.0
3.482582425594127 0.3988584940714734 0.0
4.517417574829351 0.3988584973195787 0.0
7.120961454429095 0.7969630876933931 0.0
0.8790385446795201 0.7969630878928393 0.0
4.524178509919695 0.1937066442020419 0.0
3.472973035782958 0.803602443762734 0.0
4.527026959328886 0.8036024455277256 0.0
3.475821495314308 0.1937066425220846 0.0
5.834485749168302 0.4775259269822466 0.0
2.16551424934095 0.5224740729963462 0.0
4.803832126993392 0.8343163881584211 0.0
3.196167871756218 0.1656836120733276 0.0
3.196167870279283 0.834316388182051 0.0
4.803832130306974 0.1656836112805605 0.0
1.646902821176459 0.5088844228822333 0.0
6.35309717778631 0.4911155766888507 0.0
4.128745436683365 0.8608937921704661 0.0
3.871254562700506 0.1391062074145501 0.0
7.783519314041498 0.4824599318584197 0.0
0.2164806854160975 0.4824599323519634 0.0
3.981228286637499 0.1341601386487245 0.0
4.018771713398118 0.8658398609794804 0.0
4.757705393330306 0.6277793253200102 0.0
3.245404476813698 0.3720431195654205 0.0
3.262406961538709 0.609092082228193 0.0
4.738552632749474 0.3854106153034425 0.0
4.980576921401999 0.1828043249223437 0.0
3.019423077460087 0.8171956749482756 0.0
4.975386875116307 0.8288560892267683 0.0
3.024613123995747 0.1711439108946455 0.0
7.537862127958827 0.7914398748884439 0.0
0.46213787149577 0.7914398749623154 0.0
4.150965283491015 0.1232311208167031 0.0
3.849034718225983 0.8767688792466098 0.0
0.6330166515036239 0.5212993800799176 0.0
7.366983347335347 0.5212993798709434 0.0
5.001451172914062 0.4591396125040952 0.0
2.998548825585332 0.5408603877155073 0.0
5.250532135494552 0.1623854812497458 0.0
5.24999687257574 0.8404382486850067 0.0
2.749794930508214 0.8396380739052673 0.0
2.749676059914328 0.161585306286623 0.0
1.150631951549359 0.5017906253149568 0.0
6.85747267660715 0.5137706215776152 0.0
2.938770240933895 0.3859183074771494 0.0
5.061229757952985 0.6140816927005173 0.0
5.521883200863776 0.8371838481144578 0.0
5.520780843451154 0.1567733764659754 0.0
2.479219155991939 0.1567733759623464 0.0
2.478116798894765 0.8371838481096507 0.0
2.208224060227917 0.1725929992863016 0.0
2.214655190115911 0.821187355218689 0.0
5.791775938918927 0.8274070011383262 0.0
5.785558009721889 0.1789659155514431 0.0
5.243140500145841 0.3651007420679131 0.0
5.247758683472709 0.6318228659349833 0.0
2.748336099792684 0.6332079670712092 0.0
2.766145970608876 0.3583112578457802 0.0
2.500794992947401 0.4517155340697119 0.0
5.499205006433885 0.4517155344186723 0.0
3.472119223331378 0.69283875816516 0.0
4.527880773131323 0.6928387614752662 0.0
2.445947440949104 0.6396216022327238 0.0
5.554052558509333 0.6396216019605415 0.0
[...]
POINT_DATA 494

VECTORS Velocity float
0.0000000000000000 0.0000000000000000 0.0
0.8264228622786701 -0.1269438013326921 0.0
0.0000000000000000 0.0000000000000000 0.0
0.0000000000000000 0.0000000000000000 0.0
0.0000000000000000 0.0000000000000000 0.0
0.0000000000000000 0.0000000000000000 0.0
0.0000000000000000 0.0000000000000000 0.0
0.0000000000000000 0.0000000000000000 0.0
0.0000000000000000 0.0000000000000000 0.0
0.0000000000000000 0.0000000000000000 0.0
0.0000000000000000 0.0000000000000000 0.0
0.0000000000000000 0.0000000000000000 0.0
0.0000000000000000 0.0000000000000000 0.0
0.0000000000000000 0.0000000000000000 0.0
0.0000000000000000 0.0000000000000000 0.0
0.0000000000000000 0.0000000000000000 0.0
0.0000000000000000 0.0000000000000000 0.0
0.0000000000000000 0.0000000000000000 0.0
0.0000000000000000 0.0000000000000000 0.0
0.0000000000000000 0.0000000000000000 0.0
0.0000000000000000 0.0000000000000000 0.0
0.0000000000000000 0.0000000000000000 0.0
0.0000000000000000 0.0000000000000000 0.0
0.0000000000000000 0.0000000000000000 0.0
0.0000000000000000 0.0000000000000000 0.0
0.0000000000000000 0.0000000000000000 0.0
0.0000000000000000 0.0000000000000000 0.0
0.0000000000000000 0.0000000000000000 0.0
0.0000000000000000 0.0000000000000000 0.0
0.0000000000000000 0.0000000000000000 0.0
0.0000000000000000 0.0000000000000000 0.0
0.0000000000000000 0.0000000000000000 0.0
0.0000000000000000 0.0000000000000000 0.0
0.0000000000000000 0.0000000000000000 0.0
0.0000000000000000 0.0000000000000000 0.0
0.0000000000000000 0.0000000000000000 0.0
0.0000000000000000 0.0000000000000000 0.0
0.0000000000000000 0.0000000000000000 0.0
0.0000000000000000 0.0000000000000000 0.0
0.0000000000000000 0.0000000000000000 0.0
0.0000000000000000 0.0000000000000000 0.0
0.0000000000000000 0.0000000000000000 0.0
0.0000000000000000 0.0000000000000000 0.0
0.0000000000000000 0.0000000000000000 0.0
0.0000000000000000 0.0000000000000000 0.0
0.0000000000000000 0.0000000000000000 0.0
0.0000000000000000 0.0000000000000000 0.0
0.0000000000000000 0.0000000000000000 0.0
0.0000000000000000 0.0000000000000000 0.0
0.0000000000000000 0.0000000000000000 0.0
0.0000000000000000 0.0000000000000000 0.0
0.0000000000000000 0.0000000000000000 0.0
0.0000000000000000 0.0000000000000000 0.0
0.0000000000000000 0.0000000000000000 0.0
1.0859601020584344 0.4924395329371873 0.0
0.9911498048745907 0.1053407457919392 0.0
0.9688819099963827 -0.0730435816816317 0.0
1.0641207338545327 -0.4134003382074279 0.0
0.0000000000000000 0.0000000000000000 0.0
0.0000000000000000 0.0000000000000000 0.0
0.0000000000000000 0.0000000000000000 0.0
0.0000000000000000 0.0000000000000000 0.0
0.0000000000000000 0.0000000000000000 0.0
0.0000000000000000 0.0000000000000000 0.0
0.0000000000000000 0.0000000000000000 0.0
0.0000000000000000 0.0000000000000000 0.0
0.0000000000000000 0.0000000000000000 0.0
0.0000000000000000 0.0000000000000000 0.0
0.0000000000000000 0.0000000000000000 0.0
0.0000000000000000 0.0000000000000000 0.0
0.0000000000000000 0.0000000000000000 0.0
0.0000000000000000 0.0000000000000000 0.0
0.0000000000000000 0.0000000000000000 0.0
0.0000000000000000 0.0000000000000000 0.0
0.0000000000000000 0.0000000000000000 0.0
0.0000000000000000 0.0000000000000000 0.0
0.0000000000000000 0.0000000000000000 0.0
0.0000000000000000 0.0000000000000000 0.0
0.0000000000000000 0.0000000000000000 0.0
0.0000000000000000 0.0000000000000000 0.0
0.0000000000000000 0.0000000000000000 0.0
0.0000000000000000 0.0000000000000000 0.0
0.0000000000000000 0.0000000000000000 0.0
0.0000000000000000 0.0000000000000000 0.0
0.0000000000000000 0.0000000000000000 0.0
0.0000000000000000 0.0000000000000000 0.0
0.0000000000000000 0.0000000000000000 0.0
0.0000000000000000 0.0000000000000000 0.0
0.0000000000000000 0.0000000000000000 0.0
0.0000000000000000 0.0000000000000000 0.0
0.0000000000000000 0.0000000000000000 0.0
0.0000000000000000 0.0000000000000000 0.0
0.0000000000000000 0.0000000000000000 0.0
0.0000000000000000 0.0000000000000000 0.0
0.0000000000000000 0.0000000000000000 0.0
0.0000000000000000 0.0000000000000000 0.0
0.0000000000000000 0.0000000000000000 0.0
0.0000000000000000 0.0000000000000000 0.0
0.0000000000000000 0.0000000000000000 0.0
0.0000000000000000 0.0000000000000000 0.0
0.0000000000000000 0.0000000000000000 0.0
0.0000000000000000 0.0000000000000000 0.0
0.0000000000000000 0.0000000000000000 0.0
0.0000000000000000 0.0000000000000000 0.0
1.0000000000000000 0.0000000000000000 0.0
1.0000000000000000 0.0000000000000000 0.0
1.0000000000000000 0.0000000000000000 0.0
1.0000000000000000 0.0000000000000000 0.0
0.0000000000000000 0.0000000000000000 0.0
0.0000000000000000 0.0000000000000000 0.0
0.0000000000000000 0.0000000000000000 0.0
0.0000000000000000 0.0000000000000000 0.0
0.0000000000000000 0.0000000000000000 0.0
0.0000000000000000 0.0000000000000000 0.0
0.0000000000000000 0.0000000000000000 0.0
0.0000000000000000 0.0000000000000000 0.0
0.0000000000000000 0.0000000000000000 0.0
0.0000000000000000 0.0000000000000000 0.0
0.0000000000000000 0.0000000000000000 0.0
0.0000000000000000 0.0000000000000000 0.0
1.3128462329306310 0.0038364196017598 0.0
1.3141252523294440 0.0076383781776550 0.0
1.4202302704706524 -0.0032087528955632 0.0
1.4201575239432302 -0.0077828656148388 0.0
1.3255475273319655 0.0097789904778074 0.0
1.3169445083796092 0.0221134050019543 0.0
1.3049666214387896 -0.0674780028220724 0.0
1.3091213018792611 -0.0649289092309618 0.0
1.4210559042576714 0.0077788348461863 0.0
1.4192773654180948 -0.0077334429210681 0.0
1.4063272791902490 0.0074307720599987 0.0
1.4053902288036397 0.0048054743232912 0.0
1.4304743742672574 -0.0138943856091419 0.0
1.4325540765507354 0.0027367317974281 0.0
1.4966688490137383 0.0072108991042434 0.0
1.4944339490073604 -0.0142096419284499 0.0
1.3676610964243459 0.1968121173879984 0.0
1.3634944005607335 0.1994848850996180 0.0
1.1727791237886103 0.0096104504664706 0.0
1.4001657966346652 -0.1404399782104682 0.0
1.1724499529463603 0.0098042235452241 0.0
1.4049824982477657 -0.1373639106940571 0.0
1.4761881582071639 0.0161455334711634 0.0
1.4683610560896918 -0.0301844551448027 0.0
1.3244164214681962 0.0208145338688575 0.0
1.3157853339825012 0.0197139062691766 0.0
1.3136171591872536 -0.0108056718928777 0.0
1.3016211456300861 -0.0086254138501197 0.0
1.3259066578743453 0.0024993460335854 0.0
1.2769871012247955 -0.0100773914802647 0.0
1.2660351333977669 0.0072524513028014 0.0
1.3335046883519361 -0.0041493126793263 0.0
1.4614249574074034 0.1163390779117894 0.0
1.4610777744659507 0.1161975570628834 0.0
1.2763344130550160 -0.1835036767252671 0.0
1.2767248992393971 -0.1786278067275370 0.0
1.3382207077558463 0.2211203654933109 0.0
1.3351642969322457 0.2304772395728396 0.0
1.2457042516066321 -0.0335023716281247 0.0
1.3049475265031625 0.0100474899648106 0.0
1.2950049477917118 0.0106292569239554 0.0
1.2553457454624988 -0.0313239534228110 0.0
1.1911278928027069 -0.0244569770976582 0.0
1.1803108637881701 -0.0210921194417415 0.0
1.2029145264056598 0.0055040813447798 0.0
1.1924446138143325 -0.0000280507168518 0.0
1.2605260756464061 0.0029200139601296 0.0
1.2378129571153837 -0.0109236878149632 0.0
1.2487262666739776 0.0063436000579104 0.0
1.2485581593271153 -0.0063231289784705 0.0
1.4165163838199131 -0.0060196050086010 0.0
1.3405014118252199 0.0522439312599400 0.0
1.4145974721076653 0.0068209101186042 0.0
1.3411505815653209 -0.0501072607897303 0.0
1.5632022422650351 -0.1680686846397201 0.0
1.5624962580443242 -0.1694963253346979 0.0
1.2480978042054967 -0.0096282065116783 0.0
1.2549789407440592 0.0067476927032821 0.0
1.2368929600756620 -0.0163928254207882 0.0
1.2636294627618336 -0.0026502430959819 0.0
1.4146260009367946 -0.0030473575991902 0.0
1.4199317824597837 0.0015967377796816 0.0
1.2931097711217527 -0.1448638206795607 0.0
1.2886913213619762 0.1663049532771397 0.0
1.2614036454970450 0.0471756903164601 0.0
1.2310650219161037 -0.0151492047248296 0.0
1.2559863070605835 -0.0347800945993429 0.0
1.2399271899058937 0.0341860008012768 0.0
1.2981211427861157 -0.0018372574482276 0.0
1.2996669482214649 -0.0023365232966863 0.0
1.2306255438231035 0.0400617597518455 0.0
1.2656721202033543 -0.0510499582627153 0.0
1.2418370882910788 0.0417658776884238 0.0
1.2546244703787877 -0.0498536459478619 0.0
1.2333267553948222 0.0622313354606427 0.0
1.2148168449654519 -0.0526329131852333 0.0
1.1970708797555150 -0.0637711843493646 0.0
1.2499901915401552 0.0531574945642818 0.0
1.1947369790909790 -0.0143376546368184 0.0
1.1950442136982968 0.0108822076896465 0.0
1.3637050915276516 0.0113982053095920 0.0
1.3626785767729179 0.0080705735730696 0.0
1.2768710441031259 0.0311830184112422 0.0
1.2708469958583435 -0.0347105522676564 0.0
0.6160789135440621 -0.0013316285151844 0.0
0.6057975901217288 -0.0007082531658142 0.0
0.7102343605956457 0.0868815820248832 0.0
0.7194009348381536 0.0870193278574968 0.0
1.4065391151452848 0.3452804959639210 0.0
1.4057588847543296 0.3481304435222370 0.0
1.4550625506087156 -0.2670918586200803 0.0
1.4545267557635648 -0.2634406675233071 0.0
0.9444524597995558 0.0031151568135515 0.0
0.9447272981677250 0.0175802704998591 0.0
1.4419288329976780 0.0112645309786701 0.0
1.4399376421724339 -0.0160235403031398 0.0
1.2002722033041966 0.1801483961843053 0.0
1.2185809534006780 -0.2454733114831701 0.0
1.2819663814719078 -0.0262481060438123 0.0
1.2865492143966992 0.0189484287750508 0.0
0.8129678203229578 -0.0067858316777210 0.0
0.8250251337459912 0.0053094150293218 0.0
1.1069326970367488 -0.0137284314807705 0.0
1.0985461175059903 -0.0202561526396192 0.0
1.1095948893091303 -0.0029074077042237 0.0
1.1208442396425968 -0.0065152465552573 0.0
1.4165670588800940 -0.0100389537270190 0.0
1.4143392538016430 -0.0161651001109926 0.0
0.8078066955471366 -0.0832633647825760 0.0
0.8151798761420663 -0.0833315077260971 0.0
0.8488910377394862 0.0721495084462615 0.0
0.8570777042751501 0.0712690689908918 0.0
1.3833781553392881 0.0176332471748192 0.0
1.3839746793913357 0.0148839906073465 0.0
0.9529711003865525 -0.0772224846471362 0.0
0.9554390059557669 -0.0784365010148372 0.0
1.2887963422448505 -0.0029946057296690 0.0
1.2355352698741602 0.0138133948582316 0.0
1.0178544113592973 -0.0686600997331726 0.0
1.0177033988765014 -0.0688520337591554 0.0
1.3549135799405059 -0.0333271209483244 0.0
1.3650142748764336 -0.0363680358019928 0.0
1.3313320997041895 0.0468385718207571 0.0
1.3386650078886111 0.0509862929545119 0.0
0.8888026555152565 0.0034337834636289 0.0
0.8831101949712826 0.0028798901313799 0.0
0.8421388970325974 0.0076457200949507 0.0
0.8418884111302333 0.0059199818494455 0.0
0.8673053800907140 0.0263087760625026 0.0
0.8809921525164249 -0.0446255827266232 0.0
0.7946803465230940 0.0523260227878411 0.0
0.7940378300683153 0.0519448344683685 0.0
1.4612247693827047 -0.0187378729135523 0.0
1.4664978895315872 0.0127059989376672 0.0
1.3805931690988924 -0.0096479288047520 0.0
1.3788595561220758 -0.0129390876473825 0.0
0.7982914651432644 0.0035656715866618 0.0
0.8064249105896911 0.0100443157245753 0.0
0.7980522483150438 -0.0042176207117547 0.0
0.7968673861776546 0.0040451660661986 0.0
1.4807725097359969 0.0081552390407857 0.0
1.4836751426323715 -0.0391833252909196 0.0
1.3643118658776034 -0.0366837395384247 0.0
1.3569231553006156 -0.0332965825351680 0.0
0.7925806889721182 -0.0091332985479211 0.0
0.7307272819152708 0.0139211700380528 0.0
0.7372254431724584 -0.0143275074754122 0.0
0.7844499164861338 0.0083473802173975 0.0
0.8879685959926560 0.0292129503542439 0.0
0.8684527756234056 -0.0189503655599876 0.0
0.8884551128157664 0.0216436613251534 0.0
0.8782374868855476 -0.0251896916919575 0.0
1.3702197387311437 0.0224672421767537 0.0
1.3660017830984510 -0.0161129124658761 0.0
1.3610271309333801 0.0115179002847710 0.0
1.3742557756718390 -0.0272751516983697 0.0
1.4260028719947142 0.0158657220276427 0.0
1.4227147920204686 -0.0177647961509266 0.0
1.2965326039114620 0.0175595696275017 0.0
1.3017851560816722 -0.0353509776637552 0.0
1.3571481259625080 -0.0037359484891306 0.0
1.3576116094531618 0.0020524633524450 0.0
0.8050215455387270 -0.0196086063817811 0.0
0.7437116387733879 0.0246036540283090 0.0
0.7991522644594895 -0.0206558684982046 0.0
0.7502868076616250 0.0247116301256466 0.0
0.6597085440255728 -0.0984251203619108 0.0
0.6593471535810217 -0.0944005391847779 0.0
1.2653027588858348 0.0911782439960295 0.0
1.2656174654761121 0.0916221255696976 0.0
1.3502602958206842 -0.0071727551661224 0.0
1.3281403947550656 -0.0130657370910372 0.0
1.3268181217519066 0.0147068296158293 0.0
1.3566951897702337 0.0106346367672229 0.0
0.8388175183927721 -0.0523515456030935 0.0
0.8367655886594519 0.0544782976738267 0.0
1.0500073296832682 -0.1059861301181854 0.0
1.0460128389406784 -0.0954842620532942 0.0
1.0645708199645230 0.1300908524824335 0.0
1.0647632752660114 0.1378184913309406 0.0
0.9023793181283404 -0.0388524279389305 0.0
0.8840998705818873 0.0515826566883789 0.0
0.8930101672395268 -0.0364242301900717 0.0
0.8939116147238694 0.0545650729770407 0.0
1.4134114557670090 -0.0140399199067482 0.0
1.4112481266064119 -0.0139183288124699 0.0
0.7558662792673432 -0.0196221369643771 0.0
0.7796288555376965 0.0011186545333601 0.0
0.7401494582117005 0.0167769154805151 0.0
0.7891196890656273 0.0329184438472501 0.0
0.7368026617225888 -0.0098087296712664 0.0
0.7384726230701705 0.0079809770172369 0.0
1.3480577108638614 -0.1172877280357972 0.0
1.3408000738597792 -0.1201190443536378 0.0
1.3229944332908432 0.1596252012392298 0.0
1.3162802278033130 0.1544277095212317 0.0
0.6333731567048787 -0.0503644139223607 0.0
0.6318253839166487 -0.0508496216732591 0.0
0.6440375235428015 0.0479528842655042 0.0
0.6435749022363445 0.0470480947825183 0.0
1.3557268440653720 -0.0026396170301096 0.0
1.3641950651003123 0.0002663230405215 0.0
1.2332321444537062 -0.0834196934739767 0.0
1.2367203677053142 -0.0840506750974995 0.0
1.2873847552358246 0.0812499187460155 0.0
1.2846418723298307 0.0837910617526687 0.0
0.9103070438534386 0.0370330377838164 0.0
0.8360831017588203 -0.0918188205706377 0.0
0.9000212556400385 0.0429433077641219 0.0
0.8480195340170389 -0.0845947796332277 0.0
1.3406866950535432 -0.0215697133405807 0.0
1.3167469826222342 0.0264504779251586 0.0
1.3319060333635435 -0.0195144286352755 0.0
1.3246810431728293 0.0286439918423187 0.0
1.3903594840447280 -0.0029620816813559 0.0
1.3875006385808752 -0.0074246011257336 0.0
0.7269528995610878 -0.0068126230482558 0.0
0.7338713868037490 0.0111717490831621 0.0
1.3328468089193615 0.0441401735529499 0.0
1.3385286496373094 0.0391590483420002 0.0
1.4499931914302979 -0.0345544969553913 0.0
1.4386937208169259 0.0324320344327742 0.0
0.8043466547110820 0.0480798205724877 0.0
0.8010497845603635 0.0512669952897337 0.0
1.3926344268603761 -0.0396706779166612 0.0
1.3733534895802899 0.0373385361613833 0.0
1.3769224545546026 -0.0531254400972942 0.0
1.3892828322890658 0.0201769942953501 0.0
1.4840191358321051 -0.0204935116938532 0.0
1.4945790658589706 0.0146834113960106 0.0
0.5756053163884078 -0.0052819204255752 0.0
0.5780897040036198 0.0062732198330255 0.0
1.4449800433547308 -0.0111164849899808 0.0
1.4470989328099955 0.0100853970608781 0.0
0.9523831693868873 0.2161885322450196 0.0
0.9305819890953989 -0.2097671335827444 0.0
1.2450089453389634 -0.0055996530044470 0.0
1.2479839652878486 0.0056131561249527 0.0
1.3096881750032332 0.0187824339281134 0.0
1.3161016082643051 -0.0383342670731511 0.0
1.3176194056020445 0.0099273555523566 0.0
1.3109061847290850 0.0069323823898936 0.0
1.1687485140852891 -0.0853326716677638 0.0
1.1702149876504098 -0.0866796804799134 0.0
1.3068112384627546 -0.0304261989344362 0.0
1.2932992334366873 0.0260539144923244 0.0
1.3997979632960169 0.0026179347202835 0.0
1.3950038240539580 -0.0049604407282285 0.0
1.3126928641086555 -0.0342155375026563 0.0
1.2994341846313631 0.0295821653756887 0.0
0.5265050425011177 0.0698217532953769 0.0
0.5252749172733553 0.0672745565563082 0.0
0.5212489780848533 -0.0543280915176609 0.0
0.5208387267633372 -0.0560350172819081 0.0
1.4126499417839919 -0.2274203010091332 0.0
1.4135300670754367 -0.2257632414664554 0.0
0.4764001416350077 0.0014441327271375 0.0
0.4807076822534231 -0.0040154544902654 0.0
1.5144475492547278 0.2388731761564369 0.0
1.5141660433625899 0.2400648726789094 0.0
0.6099723780192534 0.0926266736325185 0.0
0.6100999791870371 0.0922878427877534 0.0
1.4481957920871484 0.0135614478256637 0.0
1.4471423201265967 -0.0146906314644659 0.0
1.3257661094991287 -0.0294869789767643 0.0
1.3301744409000633 0.0326831496828813 0.0
1.3497193991290730 -0.2226041299178697 0.0
1.3500045672426575 -0.2312230993983651 0.0
1.3305886135520788 0.3277690508637128 0.0
1.3344193341001906 0.3171592205718463 0.0
1.3737376754243038 -0.0021736184214942 0.0
1.3797608689153693 -0.0051018343900060 0.0
0.5627750448082558 0.0661489214707183 0.0
0.5423824907931584 -0.0703185796515860 0.0
0.5487444589334819 0.0659900348005995 0.0
0.5559302906082799 -0.0694494223257099 0.0
0.5305595066211710 0.0228436319708787 0.0
0.5425009628183282 0.0225982752161472 0.0
0.5828492211911193 -0.0130616338896150 0.0
0.5950904965433313 -0.0146071451440442 0.0
1.1100920550686304 -0.1434193604749195 0.0
1.1155956638840869 -0.1343350159770673 0.0
1.1297358305701339 0.1621766296335599 0.0
1.1251791253349703 0.1713629026363984 0.0
1.1859772479906805 -0.2377449856103648 0.0
1.1742404492768173 0.2415891882388423 0.0
1.3553985931155488 0.0276064313191052 0.0
1.3503952042936582 0.0258105583793444 0.0
0.5872244255353454 -0.0040549655468317 0.0
0.5546442590797079 0.0007077303825933 0.0
0.5919227560964982 0.0057591672045143 0.0
0.5599697449013018 0.0013280214862676 0.0
1.3808786073627910 -0.0001812843347777 0.0
1.3792962350016977 -0.0016276738097439 0.0
1.3161151609670760 -0.0177361477545049 0.0
1.3258475664157210 -0.0190157157541829 0.0
0.9056938313258766 0.2468084542064071 0.0
0.9491813674714537 -0.2339215902553236 0.0
1.1414476148238415 0.0872190979689170 0.0
1.1343483357345228 0.0891172150226059 0.0
1.1541278160098170 -0.1133170808779872 0.0
1.1438977914881616 -0.1129796220202666 0.0
0.6744774337797910 -0.1240513329442323 0.0
0.6770549604905218 0.1237331701580204 0.0
0.3957528820971478 -0.0199138170654612 0.0
0.3940779329970651 -0.0191033193162596 0.0
0.3999638745675267 -0.0124567700997832 0.0
0.4021831075680795 -0.0126290633026046 0.0
0.4350910550855169 -0.0091777383174758 0.0
0.4362188373711837 0.0094955417641340 0.0
1.2085141521102201 0.2740032309262101 0.0
1.1678733848903842 -0.2330152833980165 0.0
0.5673418050062672 -0.0648673053581122 0.0
0.5613686358499597 0.0785759797743700 0.0
0.5616835993094662 -0.0636664835130197 0.0
0.5670920328590352 0.0802454753042349 0.0
1.4422841582961532 0.0273564911551543 0.0
1.4480083491177438 -0.0369575428763843 0.0
0.5049309313441983 0.0622972877869977 0.0
0.5538860294748514 -0.1033417015826415 0.0
0.9244523194735843 0.0211336395785497 0.0
0.9247621649312792 0.0231777176179818 0.0
0.9294608498791966 -0.0171446015357235 0.0
0.9279773172802976 -0.0147061403190495 0.0
0.8663118445412407 0.0097080918070077 0.0
0.8667070234507382 0.0197306780066759 0.0
0.6099409731017615 0.0615942200744305 0.0
0.5738798567455848 -0.0676020262407631 0.0
0.6045236569030862 0.0607447273091179 0.0
0.5781711486727308 -0.0687551648031315 0.0
1.3994680268285042 -0.0007293561033605 0.0
1.3984155430827661 -0.0024938775904193 0.0
0.5049684713972354 -0.0781701306095866 0.0
0.5351670239371019 0.0517293366034236 0.0
0.5237357264617547 0.0642045233678181 0.0
0.5175033294631284 -0.0646967841596812 0.0
1.1980323614596344 -0.0049636669204681 0.0
1.2048504614553983 0.0025582170245592 0.0
1.2167407654369649 -0.0333899028152974 0.0
1.2195531839389280 -0.0301636523091740 0.0
1.3180402746769491 -0.0169648297938057 0.0
1.3097707250452439 -0.0122262815748719 0.0
1.3106750741631739 -0.0412950355448882 0.0
1.3164157488747117 -0.0356439753983673 0.0
1.1995816651404776 -0.0579991129232842 0.0
1.2084681960489358 -0.0573780894885186 0.0
0.6005681451163040 -0.0013166444495586 0.0
0.5848667654690811 0.0032298963745203 0.0
0.5931811944496370 0.0014691708824431 0.0
0.5917753705024613 -0.0030034495959153 0.0