# vtk DataFile Version 3.0
LucasCarvalhoTCC Results
ASCII

DATASET POLYDATA
FIELD FieldData 1
TIME 1 1 double
3.4000000000000004

POINTS 494 float
0.0 0.0 0.0
8.0 0.0 0.0
8.0 1.0 0.0
0.0 1.0 0.0
4.0 0.0 0.0
4.0 1.0 0.0
4.0 0.35 0.0
4.0 0.65 0.0
0.2010296266416496 1.0 0.0
0.3986915135488555 1.0 0.0
0.5930420631591132 1.0 0.0
0.7841367769318693 1.0 0.0
0.9720301907499852 1.0 0.0
1.156775924166146 1.0 0.0
1.33842670621592 1.0 0.0
1.517034389070868 1.0 0.0
1.69264994674003 1.0 0.0
1.865323550794866 1.0 0.0
2.035104414722059 1.0 0.0
2.202040983487818 1.0 0.0
2.366180993436638 1.0 0.0
2.527571282866703 1.0 0.0
2.686257831390245 1.0 0.0
2.842286022819771 1.0 0.0
2.995700353514032 1.0 0.0
3.146544637914273 1.0 0.0
3.294861880721452 1.0 0.0
3.440694398353104 1.0 0.0
3.58408394609007 1.0 0.0
3.725071294102791 1.0 0.0
3.863696788294668 1.0 0.0
4.136303211705004 1.0 0.0
4.274928705896546 1.0 0.0
4.415916053908917 1.0 0.0
4.55930560164552 1.0 0.0
4.7051381192768 1.0 0.0
4.853455362083593 1.0 0.0
5.004299646483437 1.0 0.0
5.157713977177285 1.0 0.0
5.313742168606385 1.0 0.0
5.472428717129489 1.0 0.0
5.6338190065591 1.0 0.0
5.797959016507455 1.0 0.0
5.96489558527273 1.0 0.0
6.134676449200184 1.0 0.0
6.307350053255487 1.0 0.0
6.482965610925135 1.0 0.0
6.661573293780584 1.0 0.0
6.843224075830887 1.0 0.0
7.027969809247587 1.0 0.0
7.215863223066262 1.0 0.0
7.4069579368396 1.0 0.0
7.601308486450315 1.0 0.0
7.798970373357896 1.0 0.0
8.0 0.7999999999999996 0.0
8.0 0.6000000000013874 0.0
8.0 0.4000000000016649 0.0
8.0 0.2000000000008324 0.0
7.798970373357898 0.0 0.0
7.601308486450317 0.0 0.0
7.406957936839601 0.0 0.0
7.215863223066265 0.0 0.0
7.02796980924759 0.0 0.0
6.843224075830888 0.0 0.0
6.661573293780592 0.0 0.0
6.482965610925139 0.0 0.0
6.307350053255492 0.0 0.0
6.134676449200188 0.0 0.0
5.964895585272735 0.0 0.0
5.797959016507459 0.0 0.0
5.633819006559103 0.0 0.0
5.472428717129493 0.0 0.0
5.313742168606389 0.0 0.0
5.157713977177288 0.0 0.0
5.004299646483441 0.0 0.0
4.853455362083597 0.0 0.0
4.705138119276803 0.0 0.0
4.559305601645523 0.0 0.0
4.415916053908919 0.0 0.0
4.274928705896549 0.0 0.0
4.136303211705007 0.0 0.0
3.863696788294383 0.0 0.0
3.725071294102209 0.0 0.0
3.584083946089184 0.0 0.0
3.440694398352564 0.0 0.0
3.29486188072223 0.0 0.0
3.146544637916415 0.0 0.0
2.995700353517581 0.0 0.0
2.842286022824779 0.0 0.0
2.68625783139676 0.0 0.0
2.527571282874774 0.0 0.0
2.366180993446318 0.0 0.0
2.202040983499156 0.0 0.0
2.035104414735112 0.0 0.0
1.865323550807426 0.0 0.0
1.692649946751479 0.0 0.0
1.517034389081164 0.0 0.0
1.338426706225015 0.0 0.0
1.156775924174005 0.0 0.0
0.9720301907565596 0.0 0.0
0.784136776937109 0.0 0.0
0.5930420631629705 0.0 0.0
0.3986915135514271 0.0 0.0
0.2010296266429896 0.0 0.0
0.0 0.199999999999558 0.0
0.0 0.3999999999989746 0.0
0.0 0.5999999999989464 0.0
0.0 0.7999999999994731 0.0
4.065082561150232 0.3648546699507293 0.0
4.117274722996153 0.4064765305061043 0.0
4.146239186965635 0.4666218605127571 0.0
4.146239186588658 0.5333781411388893 0.0
4.117274722147235 0.5935234705584039 0.0
4.065082560620447 0.6351453303044018 0.0
3.934917439190226 0.6351453302132268 0.0
3.882725277520537 0.5935234701418048 0.0
3.853760813071839 0.5333781396514286 0.0
3.853760813263242 0.4666218595099774 0.0
3.882725277782338 0.4064765295299076 0.0
3.934917439246251 0.3648546697597932 0.0
3.348071016817302 0.5037366844559412 0.0
4.65817771841185 0.4813089492125461 0.0
5.148432135339639 0.5000000000000013 0.0
2.851567863014233 0.5000000000000465 0.0
4.406326506211093 0.3072680842959042 0.0
3.575604791543614 0.6706702532911111 0.0
4.424395205595821 0.6706702556565258 0.0
3.593673497058965 0.3072680820819204 0.0
5.648652107845511 0.5000000000000006 0.0
2.351347890458042 0.4999999999998563 0.0
1.851146954963573 0.4999999999998219 0.0
6.148853043290459 0.4999999999999989 0.0
6.65089532386231 0.5241211434250735 0.0
1.349104674975677 0.4758788558671475 0.0
7.150713697794147 0.4858064203922342 0.0
0.8492863006035025 0.4858064203396458 0.0
4.216343713145164 0.2287135668575249 0.0
3.7836562881134 0.7712864338025908 0.0
4.346988371127422 0.5000000019594898 0.0
4.213775907987267 0.7756803165215952 0.0
3.653011628408684 0.4999999990051173 0.0
3.786224091202296 0.224319683220954 0.0
7.572712389010231 0.5763628491757339 0.0
0.4272876103144935 0.5763628498169726 0.0
4.881741322202974 0.3185523670790996 0.0
3.118258676783759 0.6814476337404539 0.0
3.126854924363118 0.2792890251323842 0.0
4.873145074373641 0.7207109754187309 0.0
5.398381996912613 0.291094588046412 0.0
5.396092528392672 0.7230702977293901 0.0
2.603907471650227 0.7230702981371074 0.0
2.601618001742297 0.2910945873520305 0.0
4.065645388412852 0.1903894420877926 0.0
3.934354612281609 0.8096105573695707 0.0
4.268393145079946 0.6292513280674802 0.0
3.731606853978594 0.3707486723017213 0.0
4.265062587797852 0.3723525870906427 0.0
3.734937412407246 0.6276474138958879 0.0
5.89991820844496 0.720584760457478 0.0
5.899661142431216 0.2940789491313893 0.0
2.100338856207466 0.7059210507243335 0.0
2.100081790085733 0.2794152396968363 0.0
4.648216390708278 0.2460745758417431 0.0
3.350865525112209 0.7519279174007294 0.0
3.351783614314077 0.2460745727859678 0.0
4.649134469923633 0.7519279206208029 0.0
6.386000070083336 0.2800687217561524 0.0
6.399946740387701 0.7091877900019353 0.0
1.613999929083956 0.7199312783619409 0.0
1.600053258667474 0.2908122092889953 0.0
1.099018086220021 0.3101534564461602 0.0
1.099018086220183 0.6898465435530818 0.0
6.900981912171285 0.3101534566801202 0.0
6.900981912171287 0.689846543319878 0.0
3.934891793257755 0.2336799984692873 0.0
4.065108206439434 0.7663200008196746 0.0
5.133077706310633 0.254681732561614 0.0
5.131620328745691 0.7509194919064351 0.0
2.866922291796803 0.7453182673725732 0.0
2.868379670398546 0.2490805081265555 0.0
0.5973224633027379 0.3123440263675117 0.0
7.402677535116692 0.3123440263206204 0.0
7.70928508668797 0.2984218335093966 0.0
0.2907149122204558 0.2984218350042115 0.0
2.359042531710287 0.2526358364218651 0.0
2.362552667743482 0.7498876177132479 0.0
5.640957467742433 0.2526358368965552 0.0
5.637447332034727 0.7498876177447886 0.0
7.330771635020911 0.7204300868765696 0.0
0.6692283641678903 0.7204300870263377 0.0
6.141991504218947 0.7500064293114952 0.0
6.143214654121697 0.2541610692540839 0.0
1.858008494097047 0.2499935706645152 0.0
1.856785344746094 0.7458389307817799 0.0
1.360037479834015 0.7503851535261052 0.0
1.363297687800482 0.2332108063209677 0.0
6.636702311691573 0.7667891933666813 0.0
6.639962519949044 0.2496148464378299 0.0
7.14328150074831 0.2292696686424185 0.0
0.8567184978980538 0.2292696684503961 0.0
4.845173759433459 0.5000000012080886 0.0
3.15482623877425 0.4999999993865263 0.0
3.514470413944982 0.5755907957035395 0.0
4.485529584365944 0.5755907996488695 0.0
4.350214515329574 0.8947484376274254 0.0
3.64978548377064 0.1052515623441257 0.0
4.356280753270322 0.1397878825788729 0.0
3.643719248073251 0.8602121180766233 0.0
4.157657982820168 0.3023031440803671 0.0
3.842342017851872 0.6976968563131654 0.0
4.149794964153143 0.6947625877680722 0.0
3.850205035403508 0.3052374120341299 0.0
4.252863769441745 0.5000000013253333 0.0
3.747136230269581 0.4999999993774377 0.0
2.66150837620265 0.4835883053501762 0.0
5.338491622258749 0.4835883052760253 0.0
7.732076714471282 0.7613785341653052 0.0
0.267923285219987 0.7613785345749642 0.0
3.482582425594127 0.3988584940714734 0.0
4.517417574829351 0.3988584973195787 0.0
7.120961454429095 0.7969630876933931 0.0
0.8790385446795201 0.7969630878928393 0.0
4.524178509919695 0.1937066442020419 0.0
3.472973035782958 0.803602443762734 0.0
4.527026959328886 0.8036024455277256 0.0
3.475821495314308 0.1937066425220846 0.0
5.834485749168302 0.4775259269822466 0.0
2.16551424934095 0.5224740729963462 0.0
4.803832126993392 0.8343163881584211 0.0
3.196167871756218 0.1656836120733276 0.0
3.196167870279283 0.834316388182051 0.0
4.803832130306974 0.1656836112805605 0.0
1.646902821176459 0.5088844228822333 0.0
6.35309717778631 0.4911155766888507 0.0
4.128745436683365 0.8608937921704661 0.0
3.871254562700506 0.1391062074145501 0.0
7.783519314041498 0.4824599318584197 0.0
0.2164806854160975 0.4824599323519634 0.0
3.981228286637499 0.1341601386487245 0.0
4.018771713398118 0.8658398609794804 0.0
4.757705393330306 0.6277793253200102 0.0
3.245404476813698 0.3720431195654205 0.0
3.262406961538709 0.609092082228193 0.0
4.738552632749474 0.3854106153034425 0.0
4.980576921401999 0.1828043249223437 0.0
3.019423077460087 0.8171956749482756 0.0
4.975386875116307 0.8288560892267683 0.0
3.024613123995747 0.1711439108946455 0.0
7.537862127958827 0.7914398748884439 0.0
0.46213787149577 0.7914398749623154 0.0
4.150965283491015 0.1232311208167031 0.0
3.849034718225983 0.8767688792466098 0.0
0.6330166515036239 0.5212993800799176 0.0
7.366983347335347 0.5212993798709434 0.0
5.001451172914062 0.4591396125040952 0.0
2.998548825585332 0.5408603877155073 0.0
5.250532135494552 0.1623854812497458 0.0
5.24999687257574 0.8404382486850067 0.0
2.749794930508214 0.8396380739052673 0.0
2.749676059914328 0.161585306286623 0.0
1.150631951549359 0.5017906253149568 0.0
6.85747267660715 0.5137706215776152 0.0
2.938770240933895 0.3859183074771494 0.0
5.061229757952985 0.6140816927005173 0.0
5.521883200863776 0.8371838481144578 0.0
5.520780843451154 0.1567733764659754 0.0
2.479219155991939 0.1567733759623464 0.0
2.478116798894765 0.8371838481096507 0.0
2.208224060227917 0.1725929992863016 0.0
2.214655190115911 0.821187355218689 0.0
5.791775938918927 0.8274070011383262 0.0
5.785558009721889 0.1789659155514431 0.0
5.243140500145841 0.3651007420679131 0.0
5.247758683472709 0.6318228659349833 0.0
2.748336099792684 0.6332079670712092 0.0
2.766145970608876 0.3583112578457802 0.0
2.500794992947401 0.4517155340697119 0.0
5.499205006433885 0.4517155344186723 0.0
3.472119223331378 0.69283875816516 0.0
4.527880773131323 0.6928387614752662 0.0
2.445947440949104 0.6396216022327238 0.0
5.554052558509333 0.6396216019605415 0.0
[...]
POINT_DATA 494

VECTORS Velocity float
0.0000000000000000 0.0000000000000000 0.0
0.8198938833821109 -0.1380707674519342 0.0
0.0000000000000000 0.0000000000000000 0.0
0.0000000000000000 0.0000000000000000 0.0
0.0000000000000000 0.0000000000000000 0.0
0.0000000000000000 0.0000000000000000 0.0
0.0000000000000000 0.0000000000000000 0.0
0.0000000000000000 0.0000000000000000 0.0
0.0000000000000000 0.0000000000000000 0.0
0.0000000000000000 0.0000000000000000 0.0
0.0000000000000000 0.0000000000000000 0.0
0.0000000000000000 0.0000000000000000 0.0
0.0000000000000000 0.0000000000000000 0.0
0.0000000000000000 0.0000000000000000 0.0
0.0000000000000000 0.0000000000000000 0.0
0.0000000000000000 0.0000000000000000 0.0
0.0000000000000000 0.0000000000000000 0.0
0.0000000000000000 0.0000000000000000 0.0
0.0000000000000000 0.0000000000000000 0.0
0.0000000000000000 0.0000000000000000 0.0
0.0000000000000000 0.0000000000000000 0.0
0.0000000000000000 0.0000000000000000 0.0
0.0000000000000000 0.0000000000000000 0.0
0.0000000000000000 0.0000000000000000 0.0
0.0000000000000000 0.0000000000000000 0.0
0.0000000000000000 0.0000000000000000 0.0
0.0000000000000000 0.0000000000000000 0.0
0.0000000000000000 0.0000000000000000 0.0
0.0000000000000000 0.0000000000000000 0.0
0.0000000000000000 0.0000000000000000 0.0
0.0000000000000000 0.0000000000000000 0.0
0.0000000000000000 0.0000000000000000 0.0
0.0000000000000000 0.0000000000000000 0.0
0.0000000000000000 0.0000000000000000 0.0
0.0000000000000000 0.0000000000000000 0.0
0.0000000000000000 0.0000000000000000 0.0
0.0000000000000000 0.0000000000000000 0.0
0.0000000000000000 0.0000000000000000 0.0
0.0000000000000000 0.0000000000000000 0.0
0.0000000000000000 0.0000000000000000 0.0
0.0000000000000000 0.0000000000000000 0.0
0.0000000000000000 0.0000000000000000 0.0
0.0000000000000000 0.0000000000000000 0.0
0.0000000000000000 0.0000000000000000 0.0
0.0000000000000000 0.0000000000000000 0.0
0.0000000000000000 0.0000000000000000 0.0
0.0000000000000000 0.0000000000000000 0.0
0.0000000000000000 0.0000000000000000 0.0
0.0000000000000000 0.0000000000000000 0.0
0.0000000000000000 0.0000000000000000 0.0
0.0000000000000000 0.0000000000000000 0.0
0.0000000000000000 0.0000000000000000 0.0
0.0000000000000000 0.0000000000000000 0.0
0.0000000000000000 0.0000000000000000 0.0
1.0770933764589958 0.5443451641615503 0.0
0.9956025281410498 0.1377829050113886 0.0
0.9602341771466090 -0.0878938756612614 0.0
1.0633878918011552 -0.4539569727815275 0.0
0.0000000000000000 0.0000000000000000 0.0
0.0000000000000000 0.0000000000000000 0.0
0.0000000000000000 0.0000000000000000 0.0
0.0000000000000000 0.0000000000000000 0.0
0.0000000000000000 0.0000000000000000 0.0
0.0000000000000000 0.0000000000000000 0.0
0.0000000000000000 0.0000000000000000 0.0
0.0000000000000000 0.0000000000000000 0.0
0.0000000000000000 0.0000000000000000 0.0
0.0000000000000000 0.0000000000000000 0.0
0.0000000000000000 0.0000000000000000 0.0
0.0000000000000000 0.0000000000000000 0.0
0.0000000000000000 0.0000000000000000 0.0
0.0000000000000000 0.0000000000000000 0.0
0.0000000000000000 0.0000000000000000 0.0
0.0000000000000000 0.0000000000000000 0.0
0.0000000000000000 0.0000000000000000 0.0
0.0000000000000000 0.0000000000000000 0.0
0.0000000000000000 0.0000000000000000 0.0
0.0000000000000000 0.0000000000000000 0.0
0.0000000000000000 0.0000000000000000 0.0
0.0000000000000000 0.0000000000000000 0.0
0.0000000000000000 0.0000000000000000 0.0
0.0000000000000000 0.0000000000000000 0.0
0.0000000000000000 0.0000000000000000 0.0
0.0000000000000000 0.0000000000000000 0.0
0.0000000000000000 0.0000000000000000 0.0
0.0000000000000000 0.0000000000000000 0.0
0.0000000000000000 0.0000000000000000 0.0
0.0000000000000000 0.0000000000000000 0.0
0.0000000000000000 0.0000000000000000 0.0
0.0000000000000000 0.0000000000000000 0.0
0.0000000000000000 0.0000000000000000 0.0
0.0000000000000000 0.0000000000000000 0.0
0.0000000000000000 0.0000000000000000 0.0
0.0000000000000000 0.0000000000000000 0.0
0.0000000000000000 0.0000000000000000 0.0
0.0000000000000000 0.0000000000000000 0.0
0.0000000000000000 0.0000000000000000 0.0
0.0000000000000000 0.0000000000000000 0.0
0.0000000000000000 0.0000000000000000 0.0
0.0000000000000000 0.0000000000000000 0.0
0.0000000000000000 0.0000000000000000 0.0
0.0000000000000000 0.0000000000000000 0.0
0.0000000000000000 0.0000000000000000 0.0
0.0000000000000000 0.0000000000000000 0.0
1.0000000000000000 0.0000000000000000 0.0
1.0000000000000000 0.0000000000000000 0.0
1.0000000000000000 0.0000000000000000 0.0
1.0000000000000000 0.0000000000000000 0.0
0.0000000000000000 0.0000000000000000 0.0
0.0000000000000000 0.0000000000000000 0.0
0.0000000000000000 0.0000000000000000 0.0
0.0000000000000000 0.0000000000000000 0.0
0.0000000000000000 0.0000000000000000 0.0
0.0000000000000000 0.0000000000000000 0.0
0.0000000000000000 0.0000000000000000 0.0
0.0000000000000000 0.0000000000000000 0.0
0.0000000000000000 0.0000000000000000 0.0
0.0000000000000000 0.0000000000000000 0.0
0.0000000000000000 0.0000000000000000 0.0
0.0000000000000000 0.0000000000000000 0.0
1.5990323968450004 -0.0130774019186421 0.0
1.6014481547084827 0.0133509520742077 0.0
1.6370374550236602 -0.0118000605158914 0.0
1.6341189315530673 -0.0175644848968568 0.0
1.3434621207174251 0.0828452939005962 0.0
1.3678221128520776 0.0636183951591277 0.0
1.4106989423287197 -0.1089446150735708 0.0
1.3875725610202347 -0.1318500044610608 0.0
1.6116115699071563 0.0005214053835620 0.0
1.6110868017711617 -0.0081805544672109 0.0
1.5576845492760298 0.0056212896726848 0.0
1.5568049954992891 -0.0007770470154010 0.0
1.5731161150372774 -0.0318362570153608 0.0
1.5731282160946423 0.0166721415846691 0.0
1.6562379474516169 0.0097716542702428 0.0
1.6528502432858654 -0.0170508320753697 0.0
1.3198734204490588 0.3196442556677480 0.0
1.3193592306737756 0.3130643958519680 0.0
1.3650386921985260 0.0232812265270343 0.0
1.3531843875737861 -0.2336469206599164 0.0
1.3648134767966822 0.0177874143889994 0.0
1.3528915386820699 -0.2382980828388194 0.0
1.5492252621555564 0.0142276281285816 0.0
1.5329494973833648 -0.0340406685147501 0.0
1.3406704089542296 0.0047637308215745 0.0
1.3429207045885025 0.0046846662836180 0.0
1.2638889903588040 0.0018134958361656 0.0
1.2565124737799525 -0.0003693317200230 0.0
1.3046507026952769 -0.0065520111176630 0.0
1.2116788197788735 -0.0147723024373670 0.0
1.1820611817906665 0.0084397902679748 0.0
1.3268577587913077 0.0033319474486239 0.0
1.4606628482663471 0.1365152080746682 0.0
1.4610498652586432 0.1343661893435835 0.0
1.4362981495529199 -0.2753862949690355 0.0
1.4421827168656336 -0.2802784352757708 0.0
1.4424120479522133 0.3578774124046269 0.0
1.4375643322146097 0.3551991114688876 0.0
1.1806494680327655 -0.0288780904859143 0.0
1.3024180753951233 -0.0078525159247800 0.0
1.2937246469846755 -0.0172910248344761 0.0
1.1852519654836813 -0.0313821560578777 0.0
1.0782583502332945 -0.0658223532443873 0.0
1.0842595283091510 -0.0558537774320859 0.0
1.0954761003734743 0.0415201535569573 0.0
1.1053484709391632 0.0273312837543584 0.0
1.2556468519762134 0.0044822537401072 0.0
1.2401696966046294 -0.0204676707032126 0.0
1.2446033984550429 0.0192924264259184 0.0
1.2502346581383983 -0.0016347763318958 0.0
1.4405279144881997 -0.0312578921698975 0.0
1.3205873389983718 0.0528028960402740 0.0
1.4455824764857244 0.0339851432499980 0.0
1.3123216629825711 -0.0465364384728612 0.0
1.5783520147227816 -0.2291031101812351 0.0
1.5780216327819785 -0.2284198066393971 0.0
1.1559579778248732 -0.0542866648177742 0.0
1.1803188172432506 0.0584326398517670 0.0
1.1435045116405047 -0.0574505199429074 0.0
1.1887335294492445 0.0469453148737348 0.0
1.4288098429325258 0.0324677802693210 0.0
1.4397403431509541 -0.0299613922544586 0.0
1.2950721617655747 -0.1607447253378289 0.0
1.2810714649447712 0.1935596090672044 0.0
1.1905413086302217 0.0499220776018477 0.0
1.1387138973236723 -0.0050630956124528 0.0
1.1867331062025033 -0.0375432914362155 0.0
1.1540970118589213 0.0307860218375379 0.0
1.2894091462531534 0.0085673092739472 0.0
1.2966786063594928 -0.0147135241132676 0.0
1.1560126161041970 0.0378431085777143 0.0
1.2186603229527007 -0.0663604190304894 0.0
1.1582268513826799 0.0410125902114234 0.0
1.2161362723143363 -0.0648656415010650 0.0
1.1692013981814366 0.0695643185603642 0.0
1.1451868336158209 -0.0396984594133602 0.0
1.0991064888152315 -0.0578690195899944 0.0
1.2057113730171412 0.0510074276354585 0.0
1.1028603789688045 -0.0234845776472241 0.0
1.0964421022090529 0.0190657754273765 0.0
1.6123274760423221 0.0085868971532690 0.0
1.6146861025281134 -0.0003130797140880 0.0
1.4866933763021475 0.0322868349369480 0.0
1.5067840866158424 -0.0679512582063237 0.0
0.4740660652682249 -0.0139587577893958 0.0
0.4559185061397233 -0.0158895977388659 0.0
0.5720350039532045 0.1068300868435695 0.0
0.5914413430147281 0.1059949932348691 0.0
1.4645562051916419 0.4467494279496261 0.0
1.4598452650982325 0.4434351462549702 0.0
1.5443178592380626 -0.3594681272197532 0.0
1.5464264597871171 -0.3610032260007435 0.0
0.9898169298589711 0.0338141928509421 0.0
0.9905207183239482 0.0443572674670477 0.0
1.6124432323176254 0.0319307859837549 0.0
1.6046161019254537 -0.0435942581545419 0.0
1.1586964608948218 0.1959284714598901 0.0
1.1963041945602177 -0.2745051834848058 0.0
1.5292588215376137 -0.0543092760916565 0.0
1.5035606699658066 0.0111591163086826 0.0
0.7368282831115520 -0.0069284120887185 0.0
0.7585923703441531 0.0055064002799441 0.0
0.8960432676120267 -0.0166851858352062 0.0
0.9121796336840822 -0.0197449512427965 0.0
0.9275106532023627 0.0045648072258706 0.0
0.9137794596561947 0.0042984027383077 0.0
1.5783246827215653 -0.0263333485885481 0.0
1.5782956483044681 -0.0560284386975278 0.0
0.6651948153922653 -0.0839005684015182 0.0
0.6633400773477660 -0.0847549877223168 0.0
0.7124517916700261 0.0643236429135700 0.0
0.7109565810549847 0.0631619489459445 0.0
1.4962923836231112 0.0489901159169227 0.0
1.4968635029084638 0.0321869390262301 0.0
0.8995694632279757 -0.1249414170987266 0.0
0.9001483320516372 -0.1281904835291353 0.0
1.3577819022341437 0.0008926685671548 0.0
1.2764927154057353 0.0144682934184163 0.0
1.0037888780576043 -0.0945192403627755 0.0
1.0041532511873648 -0.0943508714226018 0.0
1.5165183797695623 -0.0277510104481352 0.0
1.5213564292241828 -0.0302984634568025 0.0
1.4857371290734875 0.0382269063102836 0.0
1.4889862632125299 0.0453728250997682 0.0
0.7503830571200485 -0.0081089047438129 0.0
0.7540341306965844 -0.0066274738235547 0.0
0.7047394542266889 0.0215310929100797 0.0
0.6942225606378108 0.0193305698700325 0.0
0.8169947225529214 0.0369693971152626 0.0
0.8405370625852310 -0.0645992158124099 0.0
0.7459105973533908 0.0904765603683927 0.0
0.7485700096886584 0.0875331701998602 0.0
1.5782687111852176 -0.0106378174367190 0.0
1.5882857018773058 0.0055154749463453 0.0
1.5929108927347442 -0.0078602000624738 0.0
1.5938619418085256 -0.0063467005394103 0.0
0.7020978631119751 -0.0032786634412340 0.0
0.7265935401136490 0.0264050651775913 0.0
0.7065112439120826 -0.0129081107896903 0.0
0.7052123128439023 0.0190285392160174 0.0
1.6269070942312982 -0.0023011809687754 0.0
1.6300557856247746 -0.0439834661116311 0.0
1.5209788918235345 -0.0101709173496516 0.0
1.5223890703641199 -0.0138444109465430 0.0
0.7148632883442407 -0.0106456639882000 0.0
0.6382048722672029 0.0177644199837144 0.0
0.6509422465392526 -0.0199203292404531 0.0
0.6963187763971309 0.0087508386607153 0.0
0.8048665738111279 0.0299673690686311 0.0
0.7786516727001250 -0.0221562909595847 0.0
0.8090661282385913 0.0209124688115773 0.0
0.7930913102452539 -0.0274565249455703 0.0
1.4135941734198130 -0.0101752220415823 0.0
1.4383662996699613 0.0014370973889961 0.0
1.4164904644676144 -0.0012166530028090 0.0
1.4387953497058596 0.0080510211510483 0.0
1.5791509095272498 0.0012635194858856 0.0
1.5673087906153587 -0.0107612483470543 0.0
1.3121363164731357 0.0075537060943398 0.0
1.3571131654774042 -0.0278707804921162 0.0
1.4085896337620156 0.0025647667874656 0.0
1.4165702880251696 -0.0138499556885046 0.0
0.7209780956828074 -0.0170191513804814 0.0
0.6701223930608854 0.0188625732749651 0.0
0.7227882288950780 -0.0183246024486434 0.0
0.6715037075966025 0.0204887732582543 0.0
0.5573953530232850 -0.1172494303407434 0.0
0.5617070713822176 -0.1120089471400186 0.0
1.2860770850879528 0.1188982614915327 0.0
1.2852674384985749 0.1165472431835386 0.0
1.4215885584741152 -0.0161913889117626 0.0
1.3838674074881978 -0.0406584250520409 0.0
1.3874063247201782 0.0222681488153858 0.0
1.4231017029545250 -0.0030663873663372 0.0
0.7984893757163969 -0.0653693672362317 0.0
0.7977819812764456 0.0751042922419526 0.0
1.1232476297723410 -0.1574297418625042 0.0
1.1240781005937277 -0.1541140263812364 0.0
1.1261743377513505 0.2234227745886483 0.0
1.1214176407578138 0.2244204137646394 0.0
0.8465418908973271 -0.0428655021196895 0.0
0.8065900683064046 0.0488531444528951 0.0
0.8423483335079731 -0.0382464300992551 0.0
0.8121452922736427 0.0555345187027552 0.0
1.5545024445290576 -0.0100485225096466 0.0
1.5549832394431333 -0.0198820505975385 0.0
0.6851144059863215 -0.0211433267990624 0.0
0.7028087525096881 0.0035551460363168 0.0
0.6462765988416720 0.0249822570290751 0.0
0.7319121234718111 0.0423166063402894 0.0
0.6603080317542116 0.0019862255815901 0.0
0.6653703863393747 -0.0025063132162891 0.0
1.4086356347512741 -0.2106219160563831 0.0
1.4059528797093905 -0.2016775500515354 0.0
1.2686548930973827 0.2624599869783338 0.0
1.2696244660317269 0.2457034936662653 0.0
0.4770151749233199 -0.0511657803711840 0.0
0.4854820312551663 -0.0504515550015708 0.0
0.4830792442575336 0.0525009010671596 0.0
0.4919294034929824 0.0508006733311423 0.0
1.4016322468735458 -0.0057173148336441 0.0
1.4042986297640847 -0.0031912901726848 0.0
1.4277206367219930 -0.1599697697556201 0.0
1.4436004071549706 -0.1587337973965975 0.0
1.4466027507049446 0.1772138201177848 0.0
1.4269023038227726 0.1733899169920929 0.0
0.8529483539460309 0.0395285887263653 0.0
0.7434403111881974 -0.1088238084373208 0.0
0.8382832846178622 0.0513264589640305 0.0
0.7625477093076936 -0.0922405458477121 0.0
1.3976169724831484 -0.0448531564762980 0.0
1.3693655776029130 0.0515370005237665 0.0
1.3928708340606424 -0.0370510764726599 0.0
1.3724519980497316 0.0604131064188302 0.0
1.5104012491735177 0.0016045720946784 0.0
1.5090111022596024 -0.0311135073117192 0.0
0.6468085324331274 0.0022158708669208 0.0
0.6492629312989161 0.0043616421806293 0.0
1.3903194290333991 0.0801613739758508 0.0
1.4033104260902527 0.0528901961382091 0.0
1.5196165955072487 -0.0422141977197814 0.0
1.4951073267837678 0.0460609317864100 0.0
0.6994546370315642 0.0922404183191942 0.0
0.6865282097346481 0.1000063322978765 0.0
1.4630744195976717 -0.0288898421231628 0.0
1.4142149145497078 0.0354245110190035 0.0
1.4133836004982758 -0.0493442077052730 0.0
1.4629314317291924 0.0043676320739771 0.0
1.6338398011194613 0.0200310004311434 0.0
1.6471720055028309 -0.0271882311953376 0.0
0.5028672544502057 0.0000825925338222 0.0
0.5008561122560058 0.0019290353017218 0.0
1.5292236772939309 -0.0325000497272749 0.0
1.5259963057724193 0.0319750019594410 0.0
0.9373973831185277 0.2269620339282760 0.0
0.9059217522867881 -0.2232299238536253 0.0
1.5128266614495505 -0.0158432812426820 0.0
1.5094979085990523 -0.0059498708934124 0.0
1.3094034597248343 0.0045869825435864 0.0
1.3538944416303909 -0.0289507490477530 0.0
1.3233198302905722 -0.0182156141508125 0.0
1.3280778817850190 -0.0166221668882216 0.0
1.2052193383617160 -0.1203045649515028 0.0
1.2052752656733501 -0.1202749607683763 0.0
1.4956766516676645 -0.0160214466188033 0.0
1.4455691431594215 -0.0035094911866012 0.0
1.4526929264290314 -0.0305773999768729 0.0
1.4408610987519694 0.0319179043335375 0.0
1.5031584303066419 -0.0220671227082837 0.0
1.4514133557599118 0.0026318117841174 0.0
0.4288697701672242 0.0472278476768577 0.0
0.4315494752314683 0.0440664265217688 0.0
0.4245754012708678 -0.0311077348102750 0.0
0.4174532383612110 -0.0342775432845363 0.0
1.4353585495909746 -0.3312261659408080 0.0
1.4365685901980669 -0.3344536482626467 0.0
0.3968139897058106 0.0067312730208220 0.0
0.4059512561569671 -0.0109515377277054 0.0
1.5116429828262412 0.3279147373770645 0.0
1.5130187055537381 0.3224471506389313 0.0
0.5928166750099527 0.0990277575057315 0.0
0.5936388807286734 0.0978876741710863 0.0
1.5182061835245515 0.0238275349334451 0.0
1.5219039066653846 -0.0230273969183038 0.0
1.3283973031149745 -0.0150914740277919 0.0
1.3425688623264560 0.0133407401862327 0.0
1.4603394147932425 -0.3789790622783689 0.0
1.4559315753806414 -0.3745672391524613 0.0
1.3987145522244220 0.4862081191195800 0.0
1.4084204913512501 0.4836174072247620 0.0
1.5904787536190788 0.0104419913989797 0.0
1.5877770369859905 0.0118622737854225 0.0
0.4855251464562660 0.0542351463664860 0.0
0.4639727624204681 -0.0606894851273452 0.0
0.4782811715117014 0.0583897425624771 0.0
0.4742431041672178 -0.0568964837525424 0.0
0.3845825923401048 0.0282316765205897 0.0
0.4061078869157645 0.0283802652048739 0.0
0.4190806430608464 -0.0153173373135294 0.0
0.4415285121554776 -0.0165991072465012 0.0
1.2491777923806244 -0.2051141232106122 0.0
1.2667720716897080 -0.2068519580261149 0.0
1.2763416952909532 0.2806049558469310 0.0
1.2596967069615426 0.2791554249016517 0.0
1.2073506858201246 -0.2717492275716329 0.0
1.1809316109625003 0.2659524913296766 0.0
1.4516519414072084 0.0023494917853381 0.0
1.4586499694320108 0.0161549352615474 0.0
0.5094821392629533 -0.0093376323806923 0.0
0.4838875248516620 -0.0005552402070389 0.0
0.5203548095867222 0.0144271199929671 0.0
0.4980116059838434 0.0044771082329652 0.0
1.4869302253885088 -0.0222106842954625 0.0
1.4745538573273118 0.0049785463292556 0.0
1.3347764799759956 -0.0264244904367896 0.0
1.3352848767690353 -0.0235125496419630 0.0
0.8719484733590732 0.2643696442639359 0.0
0.9351761383823252 -0.2433832018191201 0.0
1.0400394199031420 0.0743595479965476 0.0
1.0470247276911244 0.0803041913320424 0.0
1.0573355393866288 -0.0973340295485347 0.0
1.0585725997490414 -0.0998698339219023 0.0
0.6353970574138583 -0.1341449107613633 0.0
0.6496066914175974 0.1423099101055703 0.0
0.2855204165575893 -0.0242651955913787 0.0
0.2887180321154275 -0.0235880517934755 0.0
0.2949441317831561 -0.0106231270527360 0.0
0.2935770830083693 -0.0105816837252602 0.0
0.3558855034457071 -0.0116199443267109 0.0
0.3555390712651658 0.0117889082200061 0.0
1.2240848342461184 0.3285413012039426 0.0
1.1734709236896650 -0.2645183219134950 0.0
0.5059087766057233 -0.0602497251187088 0.0
0.4943260185868464 0.0720667204132672 0.0
0.5054029686705592 -0.0594801076660337 0.0
0.4952754225863096 0.0738909050012706 0.0
1.4849133761104194 0.0480014914915229 0.0
1.4959473013835358 -0.0610107055679087 0.0
0.4520336999006282 0.0758318803185218 0.0
0.5224856247093695 -0.1242718747766023 0.0
0.9602801741341481 0.0629791968586341 0.0
0.9566300726933611 0.0612813269735334 0.0
0.9846082259532565 -0.0599118598391682 0.0
0.9853380772683978 -0.0600629143208609 0.0
0.8771559077570432 0.0299312356701512 0.0
0.8776753597242500 0.0391166674832543 0.0
0.5326741200005902 0.0441518201416463 0.0
0.5071742243737798 -0.0573834364271306 0.0
0.5299239208780732 0.0426718505884480 0.0
0.5057618369450230 -0.0576502005249922 0.0
1.5445526764660786 -0.0061531228886546 0.0
1.5404884331010069 -0.0033477668579895 0.0
0.4242349654874250 -0.0721248056914208 0.0
0.4743968100538283 0.0498432979331398 0.0
0.4587850781947113 0.0611324428070101 0.0
0.4444260321394286 -0.0607914531195575 0.0
1.0108393706067482 0.0401838565987385 0.0
1.0470751902050845 0.0420509500757403 0.0
1.0781142973213906 -0.0558961240294035 0.0
1.0524843488594742 -0.0597132701562224 0.0
1.3121571154281275 0.0200737241998393 0.0
1.3100038485505985 0.0272875035614694 0.0
1.3545574795441613 -0.0674498060472991 0.0
1.3690265735244402 -0.0395240614867124 0.0
1.0575473075812207 -0.1239315984310976 0.0
1.0523168893263026 -0.1307561941935989 0.0
0.5284658117537798 -0.0014616828196794 0.0
0.5301630360426907 0.0080035834964826 0.0
0.5362401764610574 0.0041551174531565 0.0
0.5200381944062286 -0.0061591070483582 0.0