# vtk DataFile Version 3.0
LucasCarvalhoTCC Results
ASCII

DATASET POLYDATA
FIELD FieldData 1
TIME 1 1 double
0.0

POINTS 494 float
0.0 0.0 0.0
8.0 0.0 0.0
8.0 1.0 0.0
0.0 1.0 0.0
4.0 0.0 0.0
4.0 1.0 0.0
4.0 0.35 0.0
4.0 0.65 0.0
0.2010296266416496 1.0 0.0
0.3986915135488555 1.0 0.0
0.5930420631591132 1.0 0.0
0.7841367769318693 1.0 0.0
0.9720301907499852 1.0 0.0
1.156775924166146 1.0 0.0
1.33842670621592 1.0 0.0
1.517034389070868 1.0 0.0
1.69264994674003 1.0 0.0
1.865323550794866 1.0 0.0
2.035104414722059 1.0 0.0
2.202040983487818 1.0 0.0
2.366180993436638 1.0 0.0
2.527571282866703 1.0 0.0
2.686257831390245 1.0 0.0
2.842286022819771 1.0 0.0
2.995700353514032 1.0 0.0
3.146544637914273 1.0 0.0
3.294861880721452 1.0 0.0
3.440694398353104 1.0 0.0
3.58408394609007 1.0 0.0
3.725071294102791 1.0 0.0
3.863696788294668 1.0 0.0
4.136303211705004 1.0 0.0
4.274928705896546 1.0 0.0
4.415916053908917 1.0 0.0
4.55930560164552 1.0 0.0
4.7051381192768 1.0 0.0
4.853455362083593 1.0 0.0
5.004299646483437 1.0 0.0
5.157713977177285 1.0 0.0
5.313742168606385 1.0 0.0
5.472428717129489 1.0 0.0
5.6338190065591 1.0 0.0
5.797959016507455 1.0 0.0
5.96489558527273 1.0 0.0
6.134676449200184 1.0 0.0
6.307350053255487 1.0 0.0
6.482965610925135 1.0 0.0
6.661573293780584 1.0 0.0
6.843224075830887 1.0 0.0
7.027969809247587 1.0 0.0
7.215863223066262 1.0 0.0
7.4069579368396 1.0 0.0
7.601308486450315 1.0 0.0
7.798970373357896 1.0 0.0
8.0 0.7999999999999996 0.0
8.0 0.6000000000013874 0.0
8.0 0.4000000000016649 0.0
8.0 0.2000000000008324 0.0
7.798970373357898 0.0 0.0
7.601308486450317 0.0 0.0
7.406957936839601 0.0 0.0
7.215863223066265 0.0 0.0
7.02796980924759 0.0 0.0
6.843224075830888 0.0 0.0
6.661573293780592 0.0 0.0
6.482965610925139 0.0 0.0
6.307350053255492 0.0 0.0
6.134676449200188 0.0 0.0
5.964895585272735 0.0 0.0
5.797959016507459 0.0 0.0
5.633819006559103 0.0 0.0
5.472428717129493 0.0 0.0
5.313742168606389 0.0 0.0
5.157713977177288 0.0 0.0
5.004299646483441 0.0 0.0
4.853455362083597 0.0 0.0
4.705138119276803 0.0 0.0
4.559305601645523 0.0 0.0
4.415916053908919 0.0 0.0
4.274928705896549 0.0 0.0
4.136303211705007 0.0 0.0
3.863696788294383 0.0 0.0
3.725071294102209 0.0 0.0
3.584083946089184 0.0 0.0
3.440694398352564 0.0 0.0
3.29486188072223 0.0 0.0
3.146544637916415 0.0 0.0
2.995700353517581 0.0 0.0
2.842286022824779 0.0 0.0
2.68625783139676 0.0 0.0
2.527571282874774 0.0 0.0
2.366180993446318 0.0 0.0
2.202040983499156 0.0 0.0
2.035104414735112 0.0 0.0
1.865323550807426 0.0 0.0
1.692649946751479 0.0 0.0
1.517034389081164 0.0 0.0
1.338426706225015 0.0 0.0
1.156775924174005 0.0 0.0
0.9720301907565596 0.0 0.0
0.784136776937109 0.0 0.0
0.5930420631629705 0.0 0.0
0.3986915135514271 0.0 0.0
0.2010296266429896 0.0 0.0
0.0 0.199999999999558 0.0
0.0 0.3999999999989746 0.0
0.0 0.5999999999989464 0.0
0.0 0.7999999999994731 0.0
4.065082561150232 0.3648546699507293 0.0
4.117274722996153 0.4064765305061043 0.0
4.146239186965635 0.4666218605127571 0.0
4.146239186588658 0.5333781411388893 0.0
4.117274722147235 0.5935234705584039 0.0
4.065082560620447 0.6351453303044018 0.0
3.934917439190226 0.6351453302132268 0.0
3.882725277520537 0.5935234701418048 0.0
3.853760813071839 0.5333781396514286 0.0
3.853760813263242 0.4666218595099774 0.0
3.882725277782338 0.4064765295299076 0.0
3.934917439246251 0.3648546697597932 0.0
3.348071016817302 0.5037366844559412 0.0
4.65817771841185 0.4813089492125461 0.0
5.148432135339639 0.5000000000000013 0.0
2.851567863014233 0.5000000000000465 0.0
4.406326506211093 0.3072680842959042 0.0
3.575604791543614 0.6706702532911111 0.0
4.424395205595821 0.6706702556565258 0.0
3.593673497058965 0.3072680820819204 0.0
5.648652107845511 0.5000000000000006 0.0
2.351347890458042 0.4999999999998563 0.0
1.851146954963573 0.4999999999998219 0.0
6.148853043290459 0.4999999999999989 0.0
6.65089532386231 0.5241211434250735 0.0
1.349104674975677 0.4758788558671475 0.0
7.150713697794147 0.4858064203922342 0.0
0.8492863006035025 0.4858064203396458 0.0
4.216343713145164 0.2287135668575249 0.0
3.7836562881134 0.7712864338025908 0.0
4.346988371127422 0.5000000019594898 0.0
4.213775907987267 0.7756803165215952 0.0
3.653011628408684 0.4999999990051173 0.0
3.786224091202296 0.224319683220954 0.0
7.572712389010231 0.5763628491757339 0.0
0.4272876103144935 0.5763628498169726 0.0
4.881741322202974 0.3185523670790996 0.0
3.118258676783759 0.6814476337404539 0.0
3.126854924363118 0.2792890251323842 0.0
4.873145074373641 0.7207109754187309 0.0
5.398381996912613 0.291094588046412 0.0
5.396092528392672 0.7230702977293901 0.0
2.603907471650227 0.7230702981371074 0.0
2.601618001742297 0.2910945873520305 0.0
4.065645388412852 0.1903894420877926 0.0
3.934354612281609 0.8096105573695707 0.0
4.268393145079946 0.6292513280674802 0.0
3.731606853978594 0.3707486723017213 0.0
4.265062587797852 0.3723525870906427 0.0
3.734937412407246 0.6276474138958879 0.0
5.89991820844496 0.720584760457478 0.0
5.899661142431216 0.2940789491313893 0.0
2.100338856207466 0.7059210507243335 0.0
2.100081790085733 0.2794152396968363 0.0
4.648216390708278 0.2460745758417431 0.0
3.350865525112209 0.7519279174007294 0.0
3.351783614314077 0.2460745727859678 0.0
4.649134469923633 0.7519279206208029 0.0
6.386000070083336 0.2800687217561524 0.0
6.399946740387701 0.7091877900019353 0.0
1.613999929083956 0.7199312783619409 0.0
1.600053258667474 0.2908122092889953 0.0
1.099018086220021 0.3101534564461602 0.0
1.099018086220183 0.6898465435530818 0.0
6.900981912171285 0.3101534566801202 0.0
6.900981912171287 0.689846543319878 0.0
3.934891793257755 0.2336799984692873 0.0
4.065108206439434 0.7663200008196746 0.0
5.133077706310633 0.254681732561614 0.0
5.131620328745691 0.7509194919064351 0.0
2.866922291796803 0.7453182673725732 0.0
2.868379670398546 0.2490805081265555 0.0
0.5973224633027379 0.3123440263675117 0.0
7.402677535116692 0.3123440263206204 0.0
7.70928508668797 0.2984218335093966 0.0
0.2907149122204558 0.2984218350042115 0.0
2.359042531710287 0.2526358364218651 0.0
2.362552667743482 0.7498876177132479 0.0
5.640957467742433 0.2526358368965552 0.0
5.637447332034727 0.7498876177447886 0.0
7.330771635020911 0.7204300868765696 0.0
0.6692283641678903 0.7204300870263377 0.0
6.141991504218947 0.7500064293114952 0.0
6.143214654121697 0.2541610692540839 0.0
1.858008494097047 0.2499935706645152 0.0
1.856785344746094 0.7458389307817799 0.0
1.360037479834015 0.7503851535261052 0.0
1.363297687800482 0.2332108063209677 0.0
6.636702311691573 0.7667891933666813 0.0
6.639962519949044 0.2496148464378299 0.0
7.14328150074831 0.2292696686424185 0.0
0.8567184978980538 0.2292696684503961 0.0
4.845173759433459 0.5000000012080886 0.0
3.15482623877425 0.4999999993865263 0.0
3.514470413944982 0.5755907957035395 0.0
4.485529584365944 0.5755907996488695 0.0
4.350214515329574 0.8947484376274254 0.0
3.64978548377064 0.1052515623441257 0.0
4.356280753270322 0.1397878825788729 0.0
3.643719248073251 0.8602121180766233 0.0
4.157657982820168 0.3023031440803671 0.0
3.842342017851872 0.6976968563131654 0.0
4.149794964153143 0.6947625877680722 0.0
3.850205035403508 0.3052374120341299 0.0
4.252863769441745 0.5000000013253333 0.0
3.747136230269581 0.4999999993774377 0.0
2.66150837620265 0.4835883053501762 0.0
5.338491622258749 0.4835883052760253 0.0
7.732076714471282 0.7613785341653052 0.0
0.267923285219987 0.7613785345749642 0.0
3.482582425594127 0.3988584940714734 0.0
4.517417574829351 0.3988584973195787 0.0
7.120961454429095 0.7969630876933931 0.0
0.8790385446795201 0.7969630878928393 0.0
4.524178509919695 0.1937066442020419 0.0
3.472973035782958 0.803602443762734 0.0
4.527026959328886 0.8036024455277256 0.0
3.475821495314308 0.1937066425220846 0.0
5.834485749168302 0.4775259269822466 0.0
2.16551424934095 0.5224740729963462 0.0
4.803832126993392 0.8343163881584211 0.0
3.196167871756218 0.1656836120733276 0.0
3.196167870279283 0.834316388182051 0.0
4.803832130306974 0.1656836112805605 0.0
1.646902821176459 0.5088844228822333 0.0
6.35309717778631 0.4911155766888507 0.0
4.128745436683365 0.8608937921704661 0.0
3.871254562700506 0.1391062074145501 0.0
7.783519314041498 0.4824599318584197 0.0
0.2164806854160975 0.4824599323519634 0.0
3.981228286637499 0.1341601386487245 0.0
4.018771713398118 0.8658398609794804 0.0
4.757705393330306 0.6277793253200102 0.0
3.245404476813698 0.3720431195654205 0.0
3.262406961538709 0.609092082228193 0.0
4.738552632749474 0.3854106153034425 0.0
4.980576921401999 0.1828043249223437 0.0
3.019423077460087 0.8171956749482756 0.0
4.975386875116307 0.8288560892267683 0.0
3.024613123995747 0.1711439108946455 0.0
7.537862127958827 0.7914398748884439 0.0
0.46213787149577 0.7914398749623154 0.0
4.150965283491015 0.1232311208167031 0.0
3.849034718225983 0.8767688792466098 0.0
0.6330166515036239 0.5212993800799176 0.0
7.366983347335347 0.5212993798709434 0.0
5.001451172914062 0.4591396125040952 0.0
2.998548825585332 0.5408603877155073 0.0
5.250532135494552 0.1623854812497458 0.0
5.24999687257574 0.8404382486850067 0.0
2.749794930508214 0.8396380739052673 0.0
2.749676059914328 0.161585306286623 0.0
1.150631951549359 0.5017906253149568 0.0
6.85747267660715 0.5137706215776152 0.0
2.938770240933895 0.3859183074771494 0.0
5.061229757952985 0.6140816927005173 0.0
5.521883200863776 0.8371838481144578 0.0
5.520780843451154 0.1567733764659754 0.0
2.479219155991939 0.1567733759623464 0.0
2.478116798894765 0.8371838481096507 0.0
2.208224060227917 0.1725929992863016 0.0
2.214655190115911 0.821187355218689 0.0
5.791775938918927 0.8274070011383262 0.0
5.785558009721889 0.1789659155514431 0.0
5.243140500145841 0.3651007420679131 0.0
5.247758683472709 0.6318228659349833 0.0
2.748336099792684 0.6332079670712092 0.0
2.766145970608876 0.3583112578457802 0.0
2.500794992947401 0.4517155340697119 0.0
5.499205006433885 0.4517155344186723 0.0
3.472119223331378 0.69283875816516 0.0
4.527880773131323 0.6928387614752662 0.0
2.445947440949104 0.6396216022327238 0.0
5.554052558509333 0.6396216019605415 0.0
1.976669571201813 0.1631348676957265 0.0
[...]
POINT_DATA 494

VECTORS Velocity float
0.0000000000000000 0.0000000000000000 0.0
1.0023676570733737 0.0027261928532619 0.0
0.0000000000000000 0.0000000000000000 0.0
0.0000000000000000 0.0000000000000000 0.0
0.0000000000000000 0.0000000000000000 0.0
0.0000000000000000 0.0000000000000000 0.0
0.0000000000000000 0.0000000000000000 0.0
0.0000000000000000 0.0000000000000000 0.0
0.0000000000000000 0.0000000000000000 0.0
0.0000000000000000 0.0000000000000000 0.0
0.0000000000000000 0.0000000000000000 0.0
0.0000000000000000 0.0000000000000000 0.0
0.0000000000000000 0.0000000000000000 0.0
0.0000000000000000 0.0000000000000000 0.0
0.0000000000000000 0.0000000000000000 0.0
0.0000000000000000 0.0000000000000000 0.0
0.0000000000000000 0.0000000000000000 0.0
0.0000000000000000 0.0000000000000000 0.0
0.0000000000000000 0.0000000000000000 0.0
0.0000000000000000 0.0000000000000000 0.0
0.0000000000000000 0.0000000000000000 0.0
0.0000000000000000 0.0000000000000000 0.0
0.0000000000000000 0.0000000000000000 0.0
0.0000000000000000 0.0000000000000000 0.0
0.0000000000000000 0.0000000000000000 0.0
0.0000000000000000 0.0000000000000000 0.0
0.0000000000000000 0.0000000000000000 0.0
0.0000000000000000 0.0000000000000000 0.0
0.0000000000000000 0.0000000000000000 0.0
0.0000000000000000 0.0000000000000000 0.0
0.0000000000000000 0.0000000000000000 0.0
0.0000000000000000 0.0000000000000000 0.0
0.0000000000000000 0.0000000000000000 0.0
0.0000000000000000 0.0000000000000000 0.0
0.0000000000000000 0.0000000000000000 0.0
0.0000000000000000 0.0000000000000000 0.0
0.0000000000000000 0.0000000000000000 0.0
0.0000000000000000 0.0000000000000000 0.0
0.0000000000000000 0.0000000000000000 0.0
0.0000000000000000 0.0000000000000000 0.0
0.0000000000000000 0.0000000000000000 0.0
0.0000000000000000 0.0000000000000000 0.0
0.0000000000000000 0.0000000000000000 0.0
0.0000000000000000 0.0000000000000000 0.0
0.0000000000000000 0.0000000000000000 0.0
0.0000000000000000 0.0000000000000000 0.0
0.0000000000000000 0.0000000000000000 0.0
0.0000000000000000 0.0000000000000000 0.0
0.0000000000000000 0.0000000000000000 0.0
0.0000000000000000 0.0000000000000000 0.0
0.0000000000000000 0.0000000000000000 0.0
0.0000000000000000 0.0000000000000000 0.0
0.0000000000000000 0.0000000000000000 0.0
0.0000000000000000 0.0000000000000000 0.0
1.0009364455160012 0.0074735449658768 0.0
1.0000499860816832 0.0087666550737776 0.0
0.9995028219453708 0.0103984300389833 0.0
0.9995199264397322 0.0100082586950716 0.0
0.0000000000000000 0.0000000000000000 0.0
0.0000000000000000 0.0000000000000000 0.0
0.0000000000000000 0.0000000000000000 0.0
0.0000000000000000 0.0000000000000000 0.0
0.0000000000000000 0.0000000000000000 0.0
0.0000000000000000 0.0000000000000000 0.0
0.0000000000000000 0.0000000000000000 0.0
0.0000000000000000 0.0000000000000000 0.0
0.0000000000000000 0.0000000000000000 0.0
0.0000000000000000 0.0000000000000000 0.0
0.0000000000000000 0.0000000000000000 0.0
0.0000000000000000 0.0000000000000000 0.0
0.0000000000000000 0.0000000000000000 0.0
0.0000000000000000 0.0000000000000000 0.0
0.0000000000000000 0.0000000000000000 0.0
0.0000000000000000 0.0000000000000000 0.0
0.0000000000000000 0.0000000000000000 0.0
0.0000000000000000 0.0000000000000000 0.0
0.0000000000000000 0.0000000000000000 0.0
0.0000000000000000 0.0000000000000000 0.0
0.0000000000000000 0.0000000000000000 0.0
0.0000000000000000 0.0000000000000000 0.0
0.0000000000000000 0.0000000000000000 0.0
0.0000000000000000 0.0000000000000000 0.0
0.0000000000000000 0.0000000000000000 0.0
0.0000000000000000 0.0000000000000000 0.0
0.0000000000000000 0.0000000000000000 0.0
0.0000000000000000 0.0000000000000000 0.0
0.0000000000000000 0.0000000000000000 0.0
0.0000000000000000 0.0000000000000000 0.0
0.0000000000000000 0.0000000000000000 0.0
0.0000000000000000 0.0000000000000000 0.0
0.0000000000000000 0.0000000000000000 0.0
0.0000000000000000 0.0000000000000000 0.0
0.0000000000000000 0.0000000000000000 0.0
0.0000000000000000 0.0000000000000000 0.0
0.0000000000000000 0.0000000000000000 0.0
0.0000000000000000 0.0000000000000000 0.0
0.0000000000000000 0.0000000000000000 0.0
0.0000000000000000 0.0000000000000000 0.0
0.0000000000000000 0.0000000000000000 0.0
0.0000000000000000 0.0000000000000000 0.0
0.0000000000000000 0.0000000000000000 0.0
0.0000000000000000 0.0000000000000000 0.0
0.0000000000000000 0.0000000000000000 0.0
0.0000000000000000 0.0000000000000000 0.0
1.0000000000000000 0.0000000000000000 0.0
1.0000000000000000 0.0000000000000000 0.0
1.0000000000000000 0.0000000000000000 0.0
1.0000000000000000 0.0000000000000000 0.0
0.0000000000000000 0.0000000000000000 0.0
0.0000000000000000 0.0000000000000000 0.0
0.0000000000000000 0.0000000000000000 0.0
0.0000000000000000 0.0000000000000000 0.0
0.0000000000000000 0.0000000000000000 0.0
0.0000000000000000 0.0000000000000000 0.0
0.0000000000000000 0.0000000000000000 0.0
0.0000000000000000 0.0000000000000000 0.0
0.0000000000000000 0.0000000000000000 0.0
0.0000000000000000 0.0000000000000000 0.0
0.0000000000000000 0.0000000000000000 0.0
0.0000000000000000 0.0000000000000000 0.0
0.9998143983922680 0.0017985382260549 0.0
1.0002904637315277 -0.0017257085420198 0.0
0.9992081026346502 0.0000209601362554 0.0
1.0005737675439141 -0.0000734595106146 0.0
1.0032560907644257 -0.0037664830692301 0.0
0.9966499649843218 0.0033503946121405 0.0
0.9964494965414850 -0.0037622911177821 0.0
1.0035248812034494 0.0043018009967545 0.0
0.9992215955655473 0.0008172354250966 0.0
0.9992726446287780 -0.0008685910238585 0.0
0.9999427967627943 -0.0000757489964773 0.0
1.0000158198051827 0.0000582967183670 0.0
0.9986387439296360 -0.0009199161554709 0.0
1.0014549451688652 0.0008155934004730 0.0
1.0011145206088419 -0.0003102375710482 0.0
1.0015580658805270 -0.0001479575878188 0.0
1.0013206926765099 -0.0035037447555310 0.0
0.9987078786343820 0.0033692184100551 0.0
0.9996095877092437 -0.0065123453504173 0.0
0.9979771568069483 -0.0031546012697373 0.0
0.9997816524261108 0.0065176708086375 0.0
1.0020533504797859 0.0032881615353671 0.0
0.9977627743798421 0.0041402829845247 0.0
1.0049490949913575 -0.0063585141590414 0.0
1.0053014627250330 -0.0020952376273177 0.0
0.9946607891635826 0.0021367704250880 0.0
1.0071604508572587 0.0012327687726390 0.0
0.9927521741197783 -0.0013452446455885 0.0
1.0054620799960365 -0.0004567830790395 0.0
0.9939477443578667 -0.0000576002800509 0.0
0.9938821506863307 -0.0001125144223714 0.0
1.0054816092658765 0.0006384532506410 0.0
0.9997437352734349 -0.0018115239714611 0.0
1.0002587001897600 0.0017813951220249 0.0
0.9997747252367484 -0.0068305330020353 0.0
1.0001221468855699 0.0070634272296462 0.0
0.9998138691495837 -0.0071319615403136 0.0
1.0001372261180788 0.0069676627359066 0.0
0.9934034356522107 0.0005707712015015 0.0
1.0059508442788945 0.0005733269812611 0.0
0.9940339081477734 -0.0003578261283585 0.0
1.0066842146829702 -0.0008002961422381 0.0
1.0072755418760937 -0.0003070430622173 0.0
0.9929216665658471 0.0006847996338086 0.0
1.0074335362744951 0.0004570520589343 0.0
0.9928209628487892 -0.0009122898659007 0.0
1.0062950171453184 -0.0001735531409652 0.0
0.9939372852534532 0.0002020769200165 0.0
0.9937214043296722 0.0001836518060227 0.0
1.0060474849505721 -0.0002699995629065 0.0
1.0051638970350685 -0.0002130524534803 0.0
0.9947572675060307 0.0004724706715099 0.0
1.0050965392661177 0.0001243685218416 0.0
0.9944763086576927 -0.0006203233902162 0.0
0.9985095689365927 0.0020592948292682 0.0
1.0014807680196598 -0.0020122908998206 0.0
1.0073224811143309 0.0001718058320413 0.0
0.9930553180351118 -0.0005316199890576 0.0
0.9926123118271700 -0.0002804384670098 0.0
1.0069456587085039 0.0007060154359369 0.0
1.0058510619427965 -0.0056817292787628 0.0
1.0043170557758880 0.0020387287010910 0.0
1.0028989981488992 0.0031821754665410 0.0
1.0146024076396709 -0.0313589520959022 0.0
1.0072418567205648 -0.0013030099432416 0.0
0.9932075203439097 -0.0004324343809075 0.0
1.0071779636033951 0.0011995702052470 0.0
0.9932145801919070 0.0006194862222662 0.0
0.9947092437745602 0.0019150389750288 0.0
0.9962160664491986 -0.0002586084518551 0.0
0.9925932299966930 0.0003740533051373 0.0
1.0069100001089908 0.0007993305206937 0.0
1.0074053026914704 -0.0004263384169926 0.0
0.9930997403657420 -0.0007647302953764 0.0
0.9927285525418266 0.0006543037259074 0.0
1.0073062541658868 0.0009033892991686 0.0
0.9926115631059349 -0.0010802283247333 0.0
1.0073055949301755 -0.0005807153442472 0.0
1.0080433964090272 -0.0005262971577174 0.0
1.0077748643576412 -0.0000115101812285 0.0
1.0005906031629408 -0.0021779988234116 0.0
0.9991858375761977 0.0022107515222621 0.0
0.9983069630274705 0.0038962526621828 0.0
0.9981316623016750 -0.0040543817003617 0.0
0.9927011349373873 -0.0016167342433237 0.0
1.0076044879585060 0.0017063145922753 0.0
1.0073813036004478 -0.0017470201998499 0.0
0.9929024425346350 0.0016507334539403 0.0
0.9971526758361090 -0.0051926967754532 0.0
1.0027905829862631 0.0051090884668599 0.0
1.0027266750611983 -0.0049256359537902 0.0
0.9972144376588462 0.0050479982263405 0.0
0.9998243419091788 -0.0098509379730889 0.0
1.0000639640944027 0.0098605059862832 0.0
1.0005142838332177 -0.0001538113130318 0.0
1.0001191274735490 0.0003001333075019 0.0
0.9970968864527023 0.0036632047148703 0.0
1.0080169202286435 0.0324371602320840 0.0
1.0014750997719042 0.0037437196804628 0.0
1.0013464044007185 -0.0035238817210091 0.0
0.9901720298239909 -0.0001432210135301 0.0
0.9901477463671670 0.0002522983578933 0.0
1.0070739766611381 -0.0015557179079776 0.0
0.9934618842239288 0.0016202193842350 0.0
0.9934806098683580 -0.0019054152303253 0.0
1.0070619953537181 0.0018068862310465 0.0
1.0003196337730731 0.0012026036419749 0.0
0.9992975358643357 -0.0010530362859682 0.0
0.9898948325536157 -0.0015290765915958 0.0
1.0101957670525237 0.0014680093094662 0.0
0.9900024966829506 0.0018162882454035 0.0
1.0100597412260006 -0.0017511271188010 0.0
0.9999945128057089 -0.0002641083626423 0.0
1.0000167255489958 0.0002414567185805 0.0
0.9961828751868480 -0.0013065561730685 0.0
1.0038660192486348 0.0013714676073847 0.0
0.9990175054328192 0.0064290758477358 0.0
1.0212974056958852 -0.0069441343287749 0.0
1.0029463181530907 -0.0003953662411258 0.0
0.9970839482175297 0.0004082218696454 0.0
0.9957197820367913 -0.0018044801648548 0.0
1.0041271049446479 0.0016470311729969 0.0
0.9968595993027265 0.0014272290825130 0.0
1.0030496771403137 -0.0012977396101081 0.0
1.0105997879994548 -0.0016108389028170 0.0
0.9894629741410436 0.0015989939069638 0.0
0.9899554962609630 -0.0012056817584466 0.0
1.0101556252910124 0.0012106024304125 0.0
0.9930617240005863 0.0027860838383974 0.0
0.9913783640482764 -0.0001287500689629 0.0
1.0054115849992553 -0.0008412347152420 0.0
0.9946575490153748 0.0008051528992895 0.0
1.0018769870020432 -0.0027887298560360 0.0
0.9991918801793834 0.0027036813435240 0.0
1.0006922614824061 -0.0013887398703047 0.0
0.9991058213767366 0.0013515217281916 0.0
1.0112969074334586 -0.0002393306305429 0.0
0.9892987903298461 -0.0000147767161381 0.0
0.9890071985928784 -0.0002116543101772 0.0
1.0111038718093948 0.0004293102359788 0.0
1.0004992551404566 0.0001450666975265 0.0
0.9997887283066627 -0.0002684015804731 0.0
1.0040189533128385 0.0005324334296124 0.0
0.9959247465059345 -0.0005103628386456 0.0
0.9891775363560419 0.0000379479191843 0.0
1.0121891111529591 0.0000093312640150 0.0
1.0121004396747375 0.0000249434947459 0.0
0.9891022148516956 -0.0000790466523167 0.0
1.0100168652018600 -0.0017670441067700 0.0
0.9899275870741709 -0.0011453031766198 0.0
0.9902920907804926 0.0013746916374977 0.0
1.0102809533185950 0.0014896975572181 0.0
1.0038666157845750 0.0002510908288606 0.0
0.9956407880235257 0.0001509736299147 0.0
0.9958951942390507 -0.0006000643347590 0.0
1.0042293392039541 0.0002195476644993 0.0
1.0004431196464403 0.0006164630378625 0.0
1.0003177200844331 -0.0006001374718111 0.0
0.9952815748795628 0.0028844999508340 0.0
0.9951563369629848 -0.0029504775497269 0.0
0.9958662360661609 0.0000842408679522 0.0
0.9957730466439727 -0.0001376175721233 0.0
1.0101330059875335 -0.0003202002578664 0.0
0.9891113601004423 -0.0002340802695006 0.0
0.9899090601810449 0.0002284447918077 0.0
1.0109596207786267 0.0002985393107585 0.0
1.0061021831736974 0.0013370888253826 0.0
0.9940231897947395 -0.0012477712398683 0.0
0.9938864604077799 -0.0028156800835858 0.0
1.0060588537453075 0.0027817494177532 0.0
1.0039587380459363 -0.0016009815663417 0.0
0.9957294269072480 -0.0009278647958583 0.0
0.9957685385110672 0.0011787929545992 0.0
1.0038911510212849 0.0013524229996916 0.0
1.0081857403546011 0.0019935000392716 0.0
1.0044128120915330 -0.0063765771538179 0.0
1.0034174443014767 -0.0108841006250368 0.0
0.9964457808530435 0.0110428061259902 0.0
0.9963168577955063 -0.0112499121392054 0.0
1.0035987994886377 0.0111566412905902 0.0
1.0095820647756955 0.0000506894445591 0.0
0.9904314175640803 0.0001488529812559 0.0
0.9904373179647101 -0.0000324998522835 0.0
1.0095488807838033 -0.0001936103149279 0.0
1.0008204623499291 0.0003330286033001 0.0
0.9990825076895881 -0.0003213815843771 0.0
1.0100433019860591 0.0004095755324615 0.0
0.9899765139457036 0.0004035349433835 0.0
0.9898030225592310 -0.0004339469048423 0.0
1.0100821754397156 -0.0004843524100144 0.0
1.0093814178523346 -0.0026198822151963 0.0
1.0105527965652599 0.0004453274652738 0.0
1.0029653245756724 0.0037720622166398 0.0
0.9970087407845636 -0.0035863097874060 0.0
1.0026710504014718 -0.0034794253618152 0.0
0.9973490995407618 0.0033085360669605 0.0
1.0104126059195453 -0.0000018764406785 0.0
0.9899067634844679 0.0000364826833998 0.0
1.0103777722944121 -0.0000339836516933 0.0
0.9899559321568520 -0.0000002128845321 0.0
0.9960244972810084 0.0000053888006166 0.0
1.0039148872485482 -0.0000867393927372 0.0
0.9984956824512425 -0.0050342323552611 0.0
1.0014045934706632 0.0053077055807857 0.0
1.0011038790317548 -0.0053295733807948 0.0
0.9988331578424700 0.0050390275091240 0.0
1.0095960854807915 0.0000213831398913 0.0
0.9903845104778287 -0.0001375925171626 0.0
0.9904316361739769 0.0000077991397182 0.0
1.0095571124196443 0.0000510786851440 0.0
1.0043169700481205 0.0002562931568887 0.0
0.9957262116551276 0.0006648374232712 0.0
0.9956849306874135 -0.0002496121800219 0.0
1.0042616804160092 -0.0007185745415450 0.0
1.0024320910526074 0.0000293325794315 0.0
0.9975976820508629 -0.0000892386350418 0.0
1.0103880729714572 0.0004356844856385 0.0
1.0099582216062488 -0.0005935570624292 0.0
0.9963961913372548 0.0004372136859369 0.0
1.0036776497902598 -0.0004428141735060 0.0
1.0017367745645998 0.0034742449282956 0.0
1.0043273651850704 -0.0083117556990428 0.0
0.9938909074228395 0.0014792635237100 0.0
1.0062813907939328 -0.0016206097686136 0.0
1.0049272796483704 0.0005036227749105 0.0
0.9960401180164995 0.0001776000389551 0.0
0.9950398838831820 -0.0008605322451381 0.0
1.0040653381882547 -0.0000373815009665 0.0
1.0021367064023501 0.0002031530708450 0.0
1.0025459145951776 -0.0005153120556158 0.0
0.9885503199420620 0.0001163269990638 0.0
0.9886220868923015 -0.0001790273481106 0.0
0.9971108441885750 0.0002209702934197 0.0
0.9965446779006047 -0.0002046143912690 0.0
0.9945827375091537 -0.0058588995277888 0.0
1.0043382787936643 0.0034513247572170 0.0
1.0003281653590861 0.0040985947917187 0.0
1.0001693027604501 -0.0040576025386030 0.0
1.0047531627526363 -0.0028419798994634 0.0
1.0049012584380570 0.0029513926976724 0.0
1.0058016232182485 -0.0014917366628542 0.0
0.9941628157094052 0.0014723989411181 0.0
0.9923935796023954 0.0022707350941928 0.0
1.0075300360949035 -0.0022286457022166 0.0
0.9973668788432026 -0.0023608822635353 0.0
0.9970295851526584 0.0023485912896968 0.0
1.0045153658290755 0.0006488638177484 0.0
1.0047945705880821 -0.0018254703642144 0.0
1.0026158763286448 0.0019037671677720 0.0
1.0029230552077859 -0.0018757907876351 0.0
1.0134029486716420 -0.0009972081979473 0.0
0.9866915986487302 0.0009131736832316 0.0
0.9872015225277212 -0.0009972060837791 0.0
1.0128771225512976 0.0010685015721106 0.0
1.0001820851519156 -0.0025950434641746 0.0
0.9998186445117767 0.0026917343675087 0.0
0.9883736720875843 0.0010308847120610 0.0
0.9877469503992383 0.0006553660373358 0.0
0.9994694503911685 -0.0035389107043425 0.0
1.0005234450144571 0.0034463710834969 0.0
1.0060576298019894 -0.0010630955267834 0.0
0.9939995513362389 0.0010404095926113 0.0
0.9960666679739080 0.0010112287589741 0.0
0.9965225676040065 -0.0010160229562926 0.0
1.0058182062206833 -0.0000335731064461 0.0
1.0058665589813474 0.0000903791588869 0.0
0.9993429421250017 0.0059504895286866 0.0
1.0005747577000446 -0.0057271108723749 0.0
1.0008838465079899 0.0057570252177823 0.0
0.9990862890417078 -0.0058051812936808 0.0
0.9962655211575335 -0.0010483948207653 0.0
1.0035906299877768 0.0010305060680336 0.0
1.0131283596506016 -0.0007841901982375 0.0
0.9872069586663553 -0.0007560102053295 0.0
0.9872754380305515 0.0007020017334880 0.0
1.0132105051521290 0.0008171735977828 0.0
1.0096900977226408 -0.0011996317520709 0.0
0.9906963615981602 0.0011454841398592 0.0
1.0094064177536788 0.0012733583403563 0.0
0.9910107311649659 -0.0012473077694349 0.0
0.9998630881134739 -0.0076832441195166 0.0
0.9998378313695659 0.0078441234912998 0.0
0.9994990874914559 -0.0078254265172698 0.0
1.0001976372866488 0.0076693590802196 0.0
1.0009609102179922 0.0076896706915999 0.0
1.0256273777360534 0.0081843479345144 0.0
1.0033212592462810 0.0000275824839915 0.0
0.9966020655041790 -0.0000567344901514 0.0
1.0133321105381867 0.0001228153579285 0.0
0.9870490589224912 -0.0001423779835904 0.0
1.0131869507918003 0.0000053136112551 0.0
0.9871762933677179 0.0000404262616770 0.0
1.0032691894966783 -0.0009947234232474 0.0
1.0031795975982063 0.0010566335219960 0.0
0.9945251331073826 -0.0008126357607837 0.0
1.0054301980627769 0.0009140601048055 0.0
0.9968789525803283 0.0029498589707959 0.0
0.9886117088981543 -0.0019022731708206 0.0
1.0077774787166165 -0.0016220947239710 0.0
0.9922946895140027 0.0018521434704125 0.0
1.0077388237715539 0.0012260867758295 0.0
0.9922708514971723 -0.0014249756878233 0.0
1.0078109369416115 0.0021232739686956 0.0
0.9925149715700954 -0.0292271864840232 0.0
1.0128516702084793 0.0005318077665254 0.0
0.9872395768543003 -0.0005695171009224 0.0
0.9867618422342557 0.0007523774423696 0.0
1.0133469915184408 -0.0007167819976264 0.0
1.0121944591452137 0.0000734548726293 0.0
1.0112554531925990 -0.0006281416275955 0.0
0.9981719482961258 0.0064545111461841 0.0
1.0293821257609981 -0.0126115731110810 0.0
1.0114035500882133 0.0004134914417107 0.0
0.9887711763540408 0.0005228940360204 0.0
0.9886226836230966 -0.0003879047740562 0.0
1.0112309845580429 -0.0005657561238102 0.0
0.9964420360720240 0.0031067293278188 0.0
0.9988286808280510 -0.0002896183188857 0.0
0.9923327428780263 0.0023083970592627 0.0
0.9770225626996053 0.0226897993778257 0.0
0.9916489848725202 -0.0087292520585324 0.0
1.0082726226725400 0.0086306946316834 0.0
1.0083329521119286 -0.0084428603305877 0.0
0.9915653764587523 0.0085386371146691 0.0
0.9998634599379868 -0.0159697014444811 0.0
1.0000410535597291 0.0159758206088211 0.0
1.0120418955703414 0.0003237100269642 0.0
0.9882779669210623 0.0001606886855478 0.0
0.9881096593043579 -0.0002244585709848 0.0
1.0118462335822027 -0.0002348272501409 0.0
0.9970633488145401 0.0002204002777856 0.0
0.9972710507982425 -0.0003579396294736 0.0
0.9887345139052086 -0.0007588392866831 0.0
1.0116334921315582 -0.0003937088638353 0.0
0.9883479700700386 0.0005225573348820 0.0
1.0111312152750804 0.0005794036836464 0.0
1.0054626199836385 -0.0027548090558448 0.0
0.9949906674968305 0.0024543831714200 0.0
0.9949439845887271 -0.0030040697330007 0.0
1.0054365456695180 0.0033370416586979 0.0
1.0070328483519786 0.0008928308830668 0.0
0.9928986052982351 -0.0007952627581220 0.0
0.9946504485581885 -0.0001805972980649 0.0
1.0053860041300025 0.0000821656252698 0.0
0.9957158246733859 -0.0021687166747381 0.0
1.0044203905621396 0.0023748877015961 0.0
1.0111614299854901 -0.0002785508129342 0.0
0.9885503413583622 0.0000391995019689 0.0
1.0114600199100587 -0.0000196175456728 0.0
0.9887947815854322 0.0002417708245942 0.0
0.9937508930971802 -0.0002027075492358 0.0