# vtk DataFile Version 3.0
LucasCarvalhoTCC Results
ASCII

DATASET POLYDATA
FIELD FieldData 1
TIME 1 1 double
4.3

POINTS 494 float
0.0 0.0 0.0
8.0 0.0 0.0
8.0 1.0 0.0
0.0 1.0 0.0
4.0 0.0 0.0
4.0 1.0 0.0
4.0 0.35 0.0
4.0 0.65 0.0
0.2010296266416496 1.0 0.0
0.3986915135488555 1.0 0.0
0.5930420631591132 1.0 0.0
0.7841367769318693 1.0 0.0
0.9720301907499852 1.0 0.0
1.156775924166146 1.0 0.0
1.33842670621592 1.0 0.0
1.517034389070868 1.0 0.0
1.69264994674003 1.0 0.0
1.865323550794866 1.0 0.0
2.035104414722059 1.0 0.0
2.202040983487818 1.0 0.0
2.366180993436638 1.0 0.0
2.527571282866703 1.0 0.0
2.686257831390245 1.0 0.0
2.842286022819771 1.0 0.0
2.995700353514032 1.0 0.0
3.146544637914273 1.0 0.0
3.294861880721452 1.0 0.0
3.440694398353104 1.0 0.0
3.58408394609007 1.0 0.0
3.725071294102791 1.0 0.0
3.863696788294668 1.0 0.0
4.136303211705004 1.0 0.0
4.274928705896546 1.0 0.0
4.415916053908917 1.0 0.0
4.55930560164552 1.0 0.0
4.7051381192768 1.0 0.0
4.853455362083593 1.0 0.0
5.004299646483437 1.0 0.0
5.157713977177285 1.0 0.0
5.313742168606385 1.0 0.0
5.472428717129489 1.0 0.0
5.6338190065591 1.0 0.0
5.797959016507455 1.0 0.0
5.96489558527273 1.0 0.0
6.134676449200184 1.0 0.0
6.307350053255487 1.0 0.0
6.482965610925135 1.0 0.0
6.661573293780584 1.0 0.0
6.843224075830887 1.0 0.0
7.027969809247587 1.0 0.0
7.215863223066262 1.0 0.0
7.4069579368396 1.0 0.0
7.601308486450315 1.0 0.0
7.798970373357896 1.0 0.0
8.0 0.7999999999999996 0.0
8.0 0.6000000000013874 0.0
8.0 0.4000000000016649 0.0
8.0 0.2000000000008324 0.0
7.798970373357898 0.0 0.0
7.601308486450317 0.0 0.0
7.406957936839601 0.0 0.0
7.215863223066265 0.0 0.0
7.02796980924759 0.0 0.0
6.843224075830888 0.0 0.0
6.661573293780592 0.0 0.0
6.482965610925139 0.0 0.0
6.307350053255492 0.0 0.0
6.134676449200188 0.0 0.0
5.964895585272735 0.0 0.0
5.797959016507459 0.0 0.0
5.633819006559103 0.0 0.0
5.472428717129493 0.0 0.0
5.313742168606389 0.0 0.0
5.157713977177288 0.0 0.0
5.004299646483441 0.0 0.0
4.853455362083597 0.0 0.0
4.705138119276803 0.0 0.0
4.559305601645523 0.0 0.0
4.415916053908919 0.0 0.0
4.274928705896549 0.0 0.0
4.136303211705007 0.0 0.0
3.863696788294383 0.0 0.0
3.725071294102209 0.0 0.0
3.584083946089184 0.0 0.0
3.440694398352564 0.0 0.0
3.29486188072223 0.0 0.0
3.146544637916415 0.0 0.0
2.995700353517581 0.0 0.0
2.842286022824779 0.0 0.0
2.68625783139676 0.0 0.0
2.527571282874774 0.0 0.0
2.366180993446318 0.0 0.0
2.202040983499156 0.0 0.0
2.035104414735112 0.0 0.0
1.865323550807426 0.0 0.0
1.692649946751479 0.0 0.0
1.517034389081164 0.0 0.0
1.338426706225015 0.0 0.0
1.156775924174005 0.0 0.0
0.9720301907565596 0.0 0.0
0.784136776937109 0.0 0.0
0.5930420631629705 0.0 0.0
0.3986915135514271 0.0 0.0
0.2010296266429896 0.0 0.0
0.0 0.199999999999558 0.0
0.0 0.3999999999989746 0.0
0.0 0.5999999999989464 0.0
0.0 0.7999999999994731 0.0
4.065082561150232 0.3648546699507293 0.0
4.117274722996153 0.4064765305061043 0.0
4.146239186965635 0.4666218605127571 0.0
4.146239186588658 0.5333781411388893 0.0
4.117274722147235 0.5935234705584039 0.0
4.065082560620447 0.6351453303044018 0.0
3.934917439190226 0.6351453302132268 0.0
3.882725277520537 0.5935234701418048 0.0
3.853760813071839 0.5333781396514286 0.0
3.853760813263242 0.4666218595099774 0.0
3.882725277782338 0.4064765295299076 0.0
3.934917439246251 0.3648546697597932 0.0
3.348071016817302 0.5037366844559412 0.0
4.65817771841185 0.4813089492125461 0.0
5.148432135339639 0.5000000000000013 0.0
2.851567863014233 0.5000000000000465 0.0
4.406326506211093 0.3072680842959042 0.0
3.575604791543614 0.6706702532911111 0.0
4.424395205595821 0.6706702556565258 0.0
3.593673497058965 0.3072680820819204 0.0
5.648652107845511 0.5000000000000006 0.0
2.351347890458042 0.4999999999998563 0.0
1.851146954963573 0.4999999999998219 0.0
6.148853043290459 0.4999999999999989 0.0
6.65089532386231 0.5241211434250735 0.0
1.349104674975677 0.4758788558671475 0.0
7.150713697794147 0.4858064203922342 0.0
0.8492863006035025 0.4858064203396458 0.0
4.216343713145164 0.2287135668575249 0.0
3.7836562881134 0.7712864338025908 0.0
4.346988371127422 0.5000000019594898 0.0
4.213775907987267 0.7756803165215952 0.0
3.653011628408684 0.4999999990051173 0.0
3.786224091202296 0.224319683220954 0.0
7.572712389010231 0.5763628491757339 0.0
0.4272876103144935 0.5763628498169726 0.0
4.881741322202974 0.3185523670790996 0.0
3.118258676783759 0.6814476337404539 0.0
3.126854924363118 0.2792890251323842 0.0
4.873145074373641 0.7207109754187309 0.0
5.398381996912613 0.291094588046412 0.0
5.396092528392672 0.7230702977293901 0.0
2.603907471650227 0.7230702981371074 0.0
2.601618001742297 0.2910945873520305 0.0
4.065645388412852 0.1903894420877926 0.0
3.934354612281609 0.8096105573695707 0.0
4.268393145079946 0.6292513280674802 0.0
3.731606853978594 0.3707486723017213 0.0
4.265062587797852 0.3723525870906427 0.0
3.734937412407246 0.6276474138958879 0.0
5.89991820844496 0.720584760457478 0.0
5.899661142431216 0.2940789491313893 0.0
2.100338856207466 0.7059210507243335 0.0
2.100081790085733 0.2794152396968363 0.0
4.648216390708278 0.2460745758417431 0.0
3.350865525112209 0.7519279174007294 0.0
3.351783614314077 0.2460745727859678 0.0
4.649134469923633 0.7519279206208029 0.0
6.386000070083336 0.2800687217561524 0.0
6.399946740387701 0.7091877900019353 0.0
1.613999929083956 0.7199312783619409 0.0
1.600053258667474 0.2908122092889953 0.0
1.099018086220021 0.3101534564461602 0.0
1.099018086220183 0.6898465435530818 0.0
6.900981912171285 0.3101534566801202 0.0
6.900981912171287 0.689846543319878 0.0
3.934891793257755 0.2336799984692873 0.0
4.065108206439434 0.7663200008196746 0.0
5.133077706310633 0.254681732561614 0.0
5.131620328745691 0.7509194919064351 0.0
2.866922291796803 0.7453182673725732 0.0
2.868379670398546 0.2490805081265555 0.0
0.5973224633027379 0.3123440263675117 0.0
7.402677535116692 0.3123440263206204 0.0
7.70928508668797 0.2984218335093966 0.0
0.2907149122204558 0.2984218350042115 0.0
2.359042531710287 0.2526358364218651 0.0
2.362552667743482 0.7498876177132479 0.0
5.640957467742433 0.2526358368965552 0.0
5.637447332034727 0.7498876177447886 0.0
7.330771635020911 0.7204300868765696 0.0
0.6692283641678903 0.7204300870263377 0.0
6.141991504218947 0.7500064293114952 0.0
6.143214654121697 0.2541610692540839 0.0
1.858008494097047 0.2499935706645152 0.0
1.856785344746094 0.7458389307817799 0.0
1.360037479834015 0.7503851535261052 0.0
1.363297687800482 0.2332108063209677 0.0
6.636702311691573 0.7667891933666813 0.0
6.639962519949044 0.2496148464378299 0.0
7.14328150074831 0.2292696686424185 0.0
0.8567184978980538 0.2292696684503961 0.0
4.845173759433459 0.5000000012080886 0.0
3.15482623877425 0.4999999993865263 0.0
3.514470413944982 0.5755907957035395 0.0
4.485529584365944 0.5755907996488695 0.0
4.350214515329574 0.8947484376274254 0.0
3.64978548377064 0.1052515623441257 0.0
4.356280753270322 0.1397878825788729 0.0
3.643719248073251 0.8602121180766233 0.0
4.157657982820168 0.3023031440803671 0.0
3.842342017851872 0.6976968563131654 0.0
4.149794964153143 0.6947625877680722 0.0
3.850205035403508 0.3052374120341299 0.0
4.252863769441745 0.5000000013253333 0.0
3.747136230269581 0.4999999993774377 0.0
2.66150837620265 0.4835883053501762 0.0
5.338491622258749 0.4835883052760253 0.0
7.732076714471282 0.7613785341653052 0.0
0.267923285219987 0.7613785345749642 0.0
3.482582425594127 0.3988584940714734 0.0
4.517417574829351 0.3988584973195787 0.0
7.120961454429095 0.7969630876933931 0.0
0.8790385446795201 0.7969630878928393 0.0
4.524178509919695 0.1937066442020419 0.0
3.472973035782958 0.803602443762734 0.0
4.527026959328886 0.8036024455277256 0.0
3.475821495314308 0.1937066425220846 0.0
5.834485749168302 0.4775259269822466 0.0
2.16551424934095 0.5224740729963462 0.0
4.803832126993392 0.8343163881584211 0.0
3.196167871756218 0.1656836120733276 0.0
3.196167870279283 0.834316388182051 0.0
4.803832130306974 0.1656836112805605 0.0
1.646902821176459 0.5088844228822333 0.0
6.35309717778631 0.4911155766888507 0.0
4.128745436683365 0.8608937921704661 0.0
3.871254562700506 0.1391062074145501 0.0
7.783519314041498 0.4824599318584197 0.0
0.2164806854160975 0.4824599323519634 0.0
3.981228286637499 0.1341601386487245 0.0
4.018771713398118 0.8658398609794804 0.0
4.757705393330306 0.6277793253200102 0.0
3.245404476813698 0.3720431195654205 0.0
3.262406961538709 0.609092082228193 0.0
4.738552632749474 0.3854106153034425 0.0
4.980576921401999 0.1828043249223437 0.0
3.019423077460087 0.8171956749482756 0.0
4.975386875116307 0.8288560892267683 0.0
3.024613123995747 0.1711439108946455 0.0
7.537862127958827 0.7914398748884439 0.0
0.46213787149577 0.7914398749623154 0.0
4.150965283491015 0.1232311208167031 0.0
3.849034718225983 0.8767688792466098 0.0
0.6330166515036239 0.5212993800799176 0.0
7.366983347335347 0.5212993798709434 0.0
5.001451172914062 0.4591396125040952 0.0
2.998548825585332 0.5408603877155073 0.0
5.250532135494552 0.1623854812497458 0.0
5.24999687257574 0.8404382486850067 0.0
2.749794930508214 0.8396380739052673 0.0
2.749676059914328 0.161585306286623 0.0
1.150631951549359 0.5017906253149568 0.0
6.85747267660715 0.5137706215776152 0.0
2.938770240933895 0.3859183074771494 0.0
5.061229757952985 0.6140816927005173 0.0
5.521883200863776 0.8371838481144578 0.0
5.520780843451154 0.1567733764659754 0.0
2.479219155991939 0.1567733759623464 0.0
2.478116798894765 0.8371838481096507 0.0
2.208224060227917 0.1725929992863016 0.0
2.214655190115911 0.821187355218689 0.0
5.791775938918927 0.8274070011383262 0.0
5.785558009721889 0.1789659155514431 0.0
5.243140500145841 0.3651007420679131 0.0
5.247758683472709 0.6318228659349833 0.0
2.748336099792684 0.6332079670712092 0.0
2.766145970608876 0.3583112578457802 0.0
2.500794992947401 0.4517155340697119 0.0
5.499205006433885 0.4517155344186723 0.0
3.472119223331378 0.69283875816516 0.0
4.527880773131323 0.6928387614752662 0.0
2.445947440949104 0.6396216022327238 0.0
5.554052558509333 0.6396216019605415 0.0
1.976669571201813 0.1631348676957265 0.0
[...]
POINT_DATA 494

VECTORS Velocity float
0.0000000000000000 0.0000000000000000 0.0
0.8199015624678870 -0.1380512484799632 0.0
0.0000000000000000 0.0000000000000000 0.0
0.0000000000000000 0.0000000000000000 0.0
0.0000000000000000 0.0000000000000000 0.0
0.0000000000000000 0.0000000000000000 0.0
0.0000000000000000 0.0000000000000000 0.0
0.0000000000000000 0.0000000000000000 0.0
0.0000000000000000 0.0000000000000000 0.0
0.0000000000000000 0.0000000000000000 0.0
0.0000000000000000 0.0000000000000000 0.0
0.0000000000000000 0.0000000000000000 0.0
0.0000000000000000 0.0000000000000000 0.0
0.0000000000000000 0.0000000000000000 0.0
0.0000000000000000 0.0000000000000000 0.0
0.0000000000000000 0.0000000000000000 0.0
0.0000000000000000 0.0000000000000000 0.0
0.0000000000000000 0.0000000000000000 0.0
0.0000000000000000 0.0000000000000000 0.0
0.0000000000000000 0.0000000000000000 0.0
0.0000000000000000 0.0000000000000000 0.0
0.0000000000000000 0.0000000000000000 0.0
0.0000000000000000 0.0000000000000000 0.0
0.0000000000000000 0.0000000000000000 0.0
0.0000000000000000 0.0000000000000000 0.0
0.0000000000000000 0.0000000000000000 0.0
0.0000000000000000 0.0000000000000000 0.0
0.0000000000000000 0.0000000000000000 0.0
0.0000000000000000 0.0000000000000000 0.0
0.0000000000000000 0.0000000000000000 0.0
0.0000000000000000 0.0000000000000000 0.0
0.0000000000000000 0.0000000000000000 0.0
0.0000000000000000 0.0000000000000000 0.0
0.0000000000000000 0.0000000000000000 0.0
0.0000000000000000 0.0000000000000000 0.0
0.0000000000000000 0.0000000000000000 0.0
0.0000000000000000 0.0000000000000000 0.0
0.0000000000000000 0.0000000000000000 0.0
0.0000000000000000 0.0000000000000000 0.0
0.0000000000000000 0.0000000000000000 0.0
0.0000000000000000 0.0000000000000000 0.0
0.0000000000000000 0.0000000000000000 0.0
0.0000000000000000 0.0000000000000000 0.0
0.0000000000000000 0.0000000000000000 0.0
0.0000000000000000 0.0000000000000000 0.0
0.0000000000000000 0.0000000000000000 0.0
0.0000000000000000 0.0000000000000000 0.0
0.0000000000000000 0.0000000000000000 0.0
0.0000000000000000 0.0000000000000000 0.0
0.0000000000000000 0.0000000000000000 0.0
0.0000000000000000 0.0000000000000000 0.0
0.0000000000000000 0.0000000000000000 0.0
0.0000000000000000 0.0000000000000000 0.0
0.0000000000000000 0.0000000000000000 0.0
1.0770866771664869 0.5444448578074643 0.0
0.9956027896977698 0.1379920274763200 0.0
0.9602251514230919 -0.0876910892061862 0.0
1.0633876193176577 -0.4538730814102664 0.0
0.0000000000000000 0.0000000000000000 0.0
0.0000000000000000 0.0000000000000000 0.0
0.0000000000000000 0.0000000000000000 0.0
0.0000000000000000 0.0000000000000000 0.0
0.0000000000000000 0.0000000000000000 0.0
0.0000000000000000 0.0000000000000000 0.0
0.0000000000000000 0.0000000000000000 0.0
0.0000000000000000 0.0000000000000000 0.0
0.0000000000000000 0.0000000000000000 0.0
0.0000000000000000 0.0000000000000000 0.0
0.0000000000000000 0.0000000000000000 0.0
0.0000000000000000 0.0000000000000000 0.0
0.0000000000000000 0.0000000000000000 0.0
0.0000000000000000 0.0000000000000000 0.0
0.0000000000000000 0.0000000000000000 0.0
0.0000000000000000 0.0000000000000000 0.0
0.0000000000000000 0.0000000000000000 0.0
0.0000000000000000 0.0000000000000000 0.0
0.0000000000000000 0.0000000000000000 0.0
0.0000000000000000 0.0000000000000000 0.0
0.0000000000000000 0.0000000000000000 0.0
0.0000000000000000 0.0000000000000000 0.0
0.0000000000000000 0.0000000000000000 0.0
0.0000000000000000 0.0000000000000000 0.0
0.0000000000000000 0.0000000000000000 0.0
0.0000000000000000 0.0000000000000000 0.0
0.0000000000000000 0.0000000000000000 0.0
0.0000000000000000 0.0000000000000000 0.0
0.0000000000000000 0.0000000000000000 0.0
0.0000000000000000 0.0000000000000000 0.0
0.0000000000000000 0.0000000000000000 0.0
0.0000000000000000 0.0000000000000000 0.0
0.0000000000000000 0.0000000000000000 0.0
0.0000000000000000 0.0000000000000000 0.0
0.0000000000000000 0.0000000000000000 0.0
0.0000000000000000 0.0000000000000000 0.0
0.0000000000000000 0.0000000000000000 0.0
0.0000000000000000 0.0000000000000000 0.0
0.0000000000000000 0.0000000000000000 0.0
0.0000000000000000 0.0000000000000000 0.0
0.0000000000000000 0.0000000000000000 0.0
0.0000000000000000 0.0000000000000000 0.0
0.0000000000000000 0.0000000000000000 0.0
0.0000000000000000 0.0000000000000000 0.0
0.0000000000000000 0.0000000000000000 0.0
0.0000000000000000 0.0000000000000000 0.0
1.0000000000000000 0.0000000000000000 0.0
1.0000000000000000 0.0000000000000000 0.0
1.0000000000000000 0.0000000000000000 0.0
1.0000000000000000 0.0000000000000000 0.0
0.0000000000000000 0.0000000000000000 0.0
0.0000000000000000 0.0000000000000000 0.0
0.0000000000000000 0.0000000000000000 0.0
0.0000000000000000 0.0000000000000000 0.0
0.0000000000000000 0.0000000000000000 0.0
0.0000000000000000 0.0000000000000000 0.0
0.0000000000000000 0.0000000000000000 0.0
0.0000000000000000 0.0000000000000000 0.0
0.0000000000000000 0.0000000000000000 0.0
0.0000000000000000 0.0000000000000000 0.0
0.0000000000000000 0.0000000000000000 0.0
0.0000000000000000 0.0000000000000000 0.0
1.6069287498099230 -0.0151884919121628 0.0
1.6090278021197433 0.0122689707847942 0.0
1.6381083137814219 -0.0119787891068422 0.0
1.6351986527245748 -0.0164902970087147 0.0
1.3410082636384288 0.0855039421488652 0.0
1.3670651885234777 0.0644950270469714 0.0
1.4122176164348665 -0.1093920959100348 0.0
1.3876890454174413 -0.1340990068287787 0.0
1.6120240730092481 0.0002132256762573 0.0
1.6115086437490207 -0.0092846303255695 0.0
1.5577974548497902 0.0060142963412428 0.0
1.5569864422623234 -0.0008382902086721 0.0
1.5732092796239314 -0.0317874379817657 0.0
1.5732393310617361 0.0169195257882877 0.0
1.6564224208606582 0.0100101264985196 0.0
1.6530322642615474 -0.0173650167360428 0.0
1.3183019735006747 0.3232555017571840 0.0
1.3178344873979591 0.3163255571306079 0.0
1.3735145118698038 0.0239257445940291 0.0
1.3509491280719401 -0.2367216180913339 0.0
1.3735167035078979 0.0180366417803706 0.0
1.3503523897648642 -0.2418444655924574 0.0
1.5492228732415763 0.0140680848803173 0.0
1.5330501647035411 -0.0338265219855587 0.0
1.3407532975688814 0.0032737716356210 0.0
1.3437975034885754 0.0037201490239210 0.0
1.2620179469547188 0.0036274866300855 0.0
1.2555740951950523 0.0008460670575576 0.0
1.3045776921394583 -0.0067686839902114 0.0
1.2114552692634510 -0.0148332533566221 0.0
1.1810102616033795 0.0084462889915144 0.0
1.3275412869487533 0.0035798208916116 0.0
1.4606766236092310 0.1371999957404116 0.0
1.4610513821480757 0.1350300522951027 0.0
1.4400271194605734 -0.2785577515394067 0.0
1.4459807206988278 -0.2842050138361595 0.0
1.4431056222773782 0.3631262618448486 0.0
1.4385919843162283 0.3596314818980013 0.0
1.1801321891918399 -0.0288803262465424 0.0
1.3027940996080178 -0.0079944005926847 0.0
1.2942177824172731 -0.0180071808033527 0.0
1.1845964622510583 -0.0318753801375516 0.0
1.0750615206169765 -0.0683559322998290 0.0
1.0821386586618562 -0.0583889393550987 0.0
1.0918020336571743 0.0435904637849406 0.0
1.1030939741473234 0.0293050316528909 0.0
1.2560936667496496 0.0043561220225433 0.0
1.2397394586520227 -0.0206190715528947 0.0
1.2448421860273091 0.0199332582938812 0.0
1.2500329956195098 -0.0009657865200585 0.0
1.4407796859218280 -0.0316244182925673 0.0
1.3203440326165103 0.0525468396591475 0.0
1.4459722945590907 0.0343226641834394 0.0
1.3119195786699416 -0.0462991054448311 0.0
1.5779570640446134 -0.2306550055002967 0.0
1.5776751128940074 -0.2298761170956167 0.0
1.1553704687131503 -0.0548807904959581 0.0
1.1798863081688906 0.0590810731545160 0.0
1.1427899402290589 -0.0574102206701005 0.0
1.1882977389334985 0.0481387238610870 0.0
1.4285804693389319 0.0326132370646334 0.0
1.4397232957495780 -0.0301134761363004 0.0
1.2951679387298978 -0.1607917524255651 0.0
1.2809968789843149 0.1936624365513676 0.0
1.1906982648073663 0.0494042113214173 0.0
1.1380862327565526 -0.0054604704623370 0.0
1.1867996615293861 -0.0376384456615799 0.0
1.1536648970170880 0.0306226192762123 0.0
1.2894633374738420 0.0085827973265635 0.0
1.2969562619789345 -0.0147476091013443 0.0
1.1554442397778319 0.0378401493758214 0.0
1.2190316039158002 -0.0664117461399187 0.0
1.1573300380674139 0.0411757420207528 0.0
1.2168818085398367 -0.0648168888479085 0.0
1.1688887376530577 0.0696910303535410 0.0
1.1454817236364629 -0.0396236732511559 0.0
1.0983769084117183 -0.0577973836637800 0.0
1.2062367864563703 0.0510365414747568 0.0
1.1027895858650125 -0.0234114479231688 0.0
1.0961573879391937 0.0189794709154958 0.0
1.6162227166019385 0.0081187875989492 0.0
1.6189242555649823 -0.0001977873912003 0.0
1.4931347715393677 0.0306832063026152 0.0
1.5147778013459694 -0.0679837198082053 0.0
0.4706038523950908 -0.0145893392967139 0.0
0.4520037166403075 -0.0166840024647119 0.0
0.5685107256846571 0.1074150858632401 0.0
0.5882440403913997 0.1064684104568841 0.0
1.4649461806891539 0.4495354863723117 0.0
1.4602427826582396 0.4461072507025264 0.0
1.5453289919307887 -0.3622896425961950 0.0
1.5474629928953210 -0.3641207741751322 0.0
0.9928846504618049 0.0354537314418937 0.0
0.9936807894159160 0.0454286052693646 0.0
1.6131112756296917 0.0325487993604337 0.0
1.6050691810275333 -0.0438777997831444 0.0
1.1585673776555234 0.1959093907151799 0.0
1.1963354534206132 -0.2744689797013178 0.0
1.5371777898460677 -0.0546100853940465 0.0
1.5094514679707798 0.0092013635057829 0.0
0.7367097412946424 -0.0067855584183400 0.0
0.7585985531321255 0.0053194120295413 0.0
0.8897701742563821 -0.0169994585004269 0.0
0.9071548207951724 -0.0201982892971562 0.0
0.9225721022950960 0.0051599463084492 0.0
0.9073133995364426 0.0047396405612961 0.0
1.5787475760213114 -0.0265633473508223 0.0
1.5787961704893321 -0.0572493598840613 0.0
0.6632925950805435 -0.0831779174437959 0.0
0.6606310398354899 -0.0838287265583216 0.0
0.7111005365210209 0.0634705286191857 0.0
0.7088437358278851 0.0621952287688717 0.0
1.4963991443956759 0.0499058775830950 0.0
1.4970163848664797 0.0320959920110235 0.0
0.8987122307543912 -0.1262457940735472 0.0
0.8992456724892957 -0.1296022198676326 0.0
1.3578071182204012 0.0009475329666967 0.0
1.2764952786798354 0.0145593061707748 0.0
1.0039640338290075 -0.0949911070245579 0.0
1.0042981565803166 -0.0947947405291794 0.0
1.5188234948519610 -0.0263106815033991 0.0
1.5229114732537778 -0.0285036987763792 0.0
1.4892496594750251 0.0361709710141933 0.0
1.4917707959794302 0.0433231217428877 0.0
0.7490588460643487 -0.0087559094638785 0.0
0.7531778940440911 -0.0069013402635588 0.0
0.7035216328285460 0.0221413486154217 0.0
0.6925350700526600 0.0202517839854335 0.0
0.8169401875925734 0.0369184757450613 0.0
0.8406432794814701 -0.0645301633300142 0.0
0.7451372053578119 0.0914486077950423 0.0
0.7478102732339913 0.0884547910735412 0.0
1.5783492814145108 -0.0105670867408095 0.0
1.5883555446424771 0.0054302444668658 0.0
1.5948400018962166 -0.0079673344607384 0.0
1.5959733856520146 -0.0052493109047295 0.0
0.7017095867211024 -0.0034631461869821 0.0
0.7263360537751796 0.0266082895778084 0.0
0.7057373344340305 -0.0128362849795497 0.0
0.7052480108576882 0.0195191586995537 0.0
1.6270815374479000 -0.0026429171568233 0.0
1.6301565353420953 -0.0436216532320921 0.0
1.5220287382355679 -0.0082821427818655 0.0
1.5235758381005209 -0.0131331028419911 0.0
0.7146249782776597 -0.0107152177237310 0.0
0.6380824524368032 0.0177340762688588 0.0
0.6512539512623056 -0.0201333971978693 0.0
0.6956042593796987 0.0086426220836255 0.0
0.8045569424558013 0.0295503296367094 0.0
0.7785186218826941 -0.0226132916168775 0.0
0.8086387627411395 0.0208408682308591 0.0
0.7931647357443382 -0.0275736911604380 0.0
1.4136775034639266 -0.0106411776275308 0.0
1.4386458331570937 0.0017026478165527 0.0
1.4162340090688106 -0.0008159588927022 0.0
1.4394571199679040 0.0092712292316884 0.0
1.5796905928378073 0.0007819007557768 0.0
1.5675960699582943 -0.0109827976538508 0.0
1.3111166111800197 0.0061175115479334 0.0
1.3574026296478685 -0.0267265018286070 0.0
1.4081792967679065 0.0019762378427097 0.0
1.4166025980468704 -0.0141404651676635 0.0
0.7202399926091171 -0.0170629008251665 0.0
0.6705358060408528 0.0187299386129296 0.0
0.7223713145405901 -0.0182784212593275 0.0
0.6716528464312365 0.0204824854147061 0.0
0.5552423736521946 -0.1180733781623286 0.0
0.5597416519588819 -0.1127370186237598 0.0
1.2858227450290936 0.1196812150027103 0.0
1.2850552266713462 0.1173196880689199 0.0
1.4217079171902629 -0.0171767545001775 0.0
1.3839960712865114 -0.0416388421737563 0.0
1.3872981760812233 0.0220921209225003 0.0
1.4234774000121098 -0.0032955138015849 0.0
0.7985076964189645 -0.0654422605324022 0.0
0.7976452141630755 0.0751824753196687 0.0
1.1258311416264313 -0.1597461276699196 0.0
1.1268829832187257 -0.1569881733328293 0.0
1.1277834260098674 0.2272086985284897 0.0
1.1230166134183424 0.2278327226628173 0.0
0.8468246925965951 -0.0429564950551918 0.0
0.8061272727275514 0.0487520816853349 0.0
0.8427499549103910 -0.0380258190586493 0.0
0.8116310864472821 0.0558185350384418 0.0
1.5548499906375290 -0.0100847210237228 0.0
1.5554250456102958 -0.0204064938234882 0.0
0.6853157360661043 -0.0212337305449127 0.0
0.7024678701521859 0.0035221622725313 0.0
0.6458297259254723 0.0250632784683632 0.0
0.7322287167856119 0.0424020510013049 0.0
0.6600607149940537 0.0020228949514965 0.0
0.6652660481245559 -0.0025500275447874 0.0
1.4079967471574892 -0.2140433847818418 0.0
1.4057080682899907 -0.2043014539382563 0.0
1.2656297285941736 0.2659473737978061 0.0
1.2670019219413680 0.2485384123200402 0.0
0.4731955493912314 -0.0511957101718414 0.0
0.4823013313758371 -0.0505283140564076 0.0
0.4787328725376496 0.0526507406257304 0.0
0.4884104010366571 0.0510151295543212 0.0
1.4013758412281045 -0.0056926985652091 0.0
1.4037578857996094 -0.0032427935092819 0.0
1.4339296085832804 -0.1620111522380550 0.0
1.4505316499728746 -0.1611634268547133 0.0
1.4503378533498614 0.1807044211961041 0.0
1.4300995475677747 0.1761141065086753 0.0
0.8533298428002095 0.0395191490171081 0.0
0.7428763237357097 -0.1088291449606947 0.0
0.8381570100204778 0.0516263304061718 0.0
0.7625474116708432 -0.0919706659247498 0.0
1.3980661184033325 -0.0449450323294354 0.0
1.3690917355979537 0.0515396598547274 0.0
1.3933303797388674 -0.0364947966048706 0.0
1.3720911755097238 0.0610446301620593 0.0
1.5104270259788211 0.0024210651257611 0.0
1.5090001085821994 -0.0312970985820243 0.0
0.6468721371065613 0.0023425418172635 0.0
0.6492098237167256 0.0042215162121953 0.0
1.3903194718891034 0.0807795208806164 0.0
1.4037495733912781 0.0528194306560491 0.0
1.5196633670789435 -0.0423826432035457 0.0
1.4950107615143713 0.0462636648206633 0.0
0.6968603569649813 0.0936384330773289 0.0
0.6837271776492154 0.1015924304115718 0.0
1.4634279101354091 -0.0289612289434539 0.0
1.4139952572612127 0.0354312883784641 0.0
1.4129558238929794 -0.0491327524612923 0.0
1.4634063289703869 0.0045346200109778 0.0
1.6341100187815156 0.0205600983608686 0.0
1.6474217495584855 -0.0277852045191262 0.0
0.5026272510878667 -0.0000163085531426 0.0
0.5005848207784647 0.0020110259682631 0.0
1.5293700271227746 -0.0330235696833099 0.0
1.5259840780082476 0.0324142193358304 0.0
0.9373802784393136 0.2269728082576905 0.0
0.9059822831332675 -0.2232036589321426 0.0
1.5237516419352342 -0.0163951165356392 0.0
1.5194698735980245 -0.0065769782746734 0.0
1.3072804515161003 0.0033288274264569 0.0
1.3530099020835009 -0.0280041846517670 0.0
1.3232604471563127 -0.0193844911572512 0.0
1.3284598609579188 -0.0169626627926311 0.0
1.2053381379710075 -0.1213431345132622 0.0
1.2053987728858231 -0.1212481232922090 0.0
1.5004522178333761 -0.0146260439976490 0.0
1.4497865985349432 -0.0069107221664701 0.0
1.4527164953628935 -0.0305547406033642 0.0
1.4407066797082986 0.0318861964069517 0.0
1.5077682312458680 -0.0210990864381640 0.0
1.4551322853912301 -0.0002325565120755 0.0
0.4283121788044030 0.0468495964954923 0.0
0.4310153032161776 0.0438982517878870 0.0
0.4240626648402282 -0.0307904758630633 0.0
0.4168734601173475 -0.0337770830445247 0.0
1.4352051295145882 -0.3339499380675890 0.0
1.4364256142964307 -0.3374335113198529 0.0
0.3968243838912008 0.0067376309701909 0.0
0.4060644060963350 -0.0109748476268316 0.0
1.5111200578568511 0.3303830468067434 0.0
1.5125039139987573 0.3247941331140939 0.0
0.5930445003648289 0.0993595402038176 0.0
0.5938324575517764 0.0981995830034244 0.0
1.5182456939995179 0.0240079928237883 0.0
1.5221314599374938 -0.0232737360814031 0.0
1.3285095671816884 -0.0152181672655837 0.0
1.3432916280288629 0.0128543033583546 0.0
1.4617837306020263 -0.3847594982568358 0.0
1.4572614332567937 -0.3795048891774936 0.0
1.3992027570102485 0.4908460313244516 0.0
1.4089307184068884 0.4886915369593308 0.0
1.5926220705838636 0.0115316118636418 0.0
1.5894189438033617 0.0139250199118896 0.0
0.4855069110215233 0.0540318666482207 0.0
0.4636394991004947 -0.0607974187658768 0.0
0.4780153420570603 0.0583019224722725 0.0
0.4741905693789668 -0.0569057168459818 0.0
0.3808187339269221 0.0284582059667992 0.0
0.4027814766669447 0.0285514758186811 0.0
0.4145145055926986 -0.0154233105288060 0.0
0.4376071212626348 -0.0166471371912787 0.0
1.2559098422235015 -0.2072605865710459 0.0
1.2739118256057549 -0.2097719153364259 0.0
1.2817540385220820 0.2850675757661776 0.0
1.2648489359290327 0.2828901189404165 0.0
1.2074284608166630 -0.2716452539946295 0.0
1.1809208723862255 0.2659746732965634 0.0
1.4520854679525073 0.0017939990132183 0.0
1.4592040706992688 0.0168692468234661 0.0
0.5093449824044558 -0.0093800648008426 0.0
0.4832499866115031 -0.0005562113828984 0.0
0.5207849440587856 0.0145207363892245 0.0
0.4979181776666849 0.0044984996137226 0.0
1.4875306976972740 -0.0232392095003995 0.0
1.4748797186000520 0.0047795078395312 0.0
1.3356280969721732 -0.0267675756821072 0.0
1.3357199522382224 -0.0235777035367193 0.0
0.8718766568198025 0.2643917750042909 0.0
0.9351836549443140 -0.2433836965848616 0.0
1.0381291099592951 0.0721379104524121 0.0
1.0461293703378749 0.0782862382669020 0.0
1.0544829118737760 -0.0948097934792102 0.0
1.0569067114359125 -0.0977496211799364 0.0
0.6354658261048952 -0.1341660803967394 0.0
0.6495800990855468 0.1423434050987057 0.0
0.2841836386067920 -0.0237345799893492 0.0
0.2876844523491986 -0.0232123704137214 0.0
0.2940386495772938 -0.0110007740907349 0.0
0.2924113024695247 -0.0110658799397693 0.0
0.3558015727551788 -0.0115813924330493 0.0
0.3553805917934981 0.0117437833253828 0.0
1.2240149740466595 0.3286529688791945 0.0
1.1734883136467620 -0.2644986664127092 0.0
0.5060318625044142 -0.0602784100930418 0.0
0.4940423317228212 0.0720368397549905 0.0
0.5058136302251207 -0.0594994976980345 0.0
0.4947612534452039 0.0739053269753175 0.0
1.4849216449836837 0.0478737208862982 0.0
1.4961880757105384 -0.0608860001398681 0.0
0.4519711816085533 0.0758206266561359 0.0
0.5224961833305251 -0.1242387882750530 0.0
0.9608015245110578 0.0645221841399673 0.0
0.9571922745613018 0.0628006804980051 0.0
0.9858972077588856 -0.0615109700912011 0.0
0.9866809129425528 -0.0617973438163803 0.0
0.8782987174788258 0.0311443131064713 0.0
0.8788585113154023 0.0400092149315230 0.0
0.5327488327509424 0.0441227199677311 0.0
0.5068418276544630 -0.0573241219223844 0.0
0.5300627081070747 0.0425419550955086 0.0
0.5053050905167279 -0.0576722703527687 0.0
1.5448607711765951 -0.0062643846013169 0.0
1.5403419530886584 -0.0034302332568568 0.0
0.4238521571239263 -0.0720608694493018 0.0
0.4746258716779997 0.0498778103482244 0.0
0.4585485532562869 0.0611756205183430 0.0
0.4445512703745342 -0.0607786995886744 0.0
1.0047844661958638 0.0417484658043806 0.0
1.0421412937963703 0.0430858388154820 0.0
1.0735000670344421 -0.0565002430487857 0.0
1.0465087707329432 -0.0608153615921659 0.0
1.3114678247416718 0.0218599740759310 0.0
1.3098655235707732 0.0284063517861512 0.0
1.3541353279667230 -0.0674982522272057 0.0
1.3692133484740885 -0.0390793646616635 0.0
1.0531299017274725 -0.1262190639416128 0.0
1.0472168076728285 -0.1335499459674147 0.0
0.5282912515154800 -0.0013066120828237 0.0
0.5302769767014324 0.0081624291813598 0.0
0.5364510630389191 0.0041193210445460 0.0
0.5196546833754269 -0.0061894589332658 0.0