# vtk DataFile Version 3.0
LucasCarvalhoTCC Results
ASCII

DATASET POLYDATA
FIELD FieldData 1
TIME 1 1 double
2.8000000000000003

POINTS 494 float
0.0 0.0 0.0
8.0 0.0 0.0
8.0 1.0 0.0
0.0 1.0 0.0
4.0 0.0 0.0
4.0 1.0 0.0
4.0 0.35 0.0
4.0 0.65 0.0
0.2010296266416496 1.0 0.0
0.3986915135488555 1.0 0.0
0.5930420631591132 1.0 0.0
0.7841367769318693 1.0 0.0
0.9720301907499852 1.0 0.0
1.156775924166146 1.0 0.0
1.33842670621592 1.0 0.0
1.517034389070868 1.0 0.0
1.69264994674003 1.0 0.0
1.865323550794866 1.0 0.0
2.035104414722059 1.0 0.0
2.202040983487818 1.0 0.0
2.366180993436638 1.0 0.0
2.527571282866703 1.0 0.0
2.686257831390245 1.0 0.0
2.842286022819771 1.0 0.0
2.995700353514032 1.0 0.0
3.146544637914273 1.0 0.0
3.294861880721452 1.0 0.0
3.440694398353104 1.0 0.0
3.58408394609007 1.0 0.0
3.725071294102791 1.0 0.0
3.863696788294668 1.0 0.0
4.136303211705004 1.0 0.0
4.274928705896546 1.0 0.0
4.415916053908917 1.0 0.0
4.55930560164552 1.0 0.0
4.7051381192768 1.0 0.0
4.853455362083593 1.0 0.0
5.004299646483437 1.0 0.0
5.157713977177285 1.0 0.0
5.313742168606385 1.0 0.0
5.472428717129489 1.0 0.0
5.6338190065591 1.0 0.0
5.797959016507455 1.0 0.0
5.96489558527273 1.0 0.0
6.134676449200184 1.0 0.0
6.307350053255487 1.0 0.0
6.482965610925135 1.0 0.0
6.661573293780584 1.0 0.0
6.843224075830887 1.0 0.0
7.027969809247587 1.0 0.0
7.215863223066262 1.0 0.0
7.4069579368396 1.0 0.0
7.601308486450315 1.0 0.0
7.798970373357896 1.0 0.0
8.0 0.7999999999999996 0.0
8.0 0.6000000000013874 0.0
8.0 0.4000000000016649 0.0
8.0 0.2000000000008324 0.0
7.798970373357898 0.0 0.0
7.601308486450317 0.0 0.0
7.406957936839601 0.0 0.0
7.215863223066265 0.0 0.0
7.02796980924759 0.0 0.0
6.843224075830888 0.0 0.0
6.661573293780592 0.0 0.0
6.482965610925139 0.0 0.0
6.307350053255492 0.0 0.0
6.134676449200188 0.0 0.0
5.964895585272735 0.0 0.0
5.797959016507459 0.0 0.0
5.633819006559103 0.0 0.0
5.472428717129493 0.0 0.0
5.313742168606389 0.0 0.0
5.157713977177288 0.0 0.0
5.004299646483441 0.0 0.0
4.853455362083597 0.0 0.0
4.705138119276803 0.0 0.0
4.559305601645523 0.0 0.0
4.415916053908919 0.0 0.0
4.274928705896549 0.0 0.0
4.136303211705007 0.0 0.0
3.863696788294383 0.0 0.0
3.725071294102209 0.0 0.0
3.584083946089184 0.0 0.0
3.440694398352564 0.0 0.0
3.29486188072223 0.0 0.0
3.146544637916415 0.0 0.0
2.995700353517581 0.0 0.0
2.842286022824779 0.0 0.0
2.68625783139676 0.0 0.0
2.527571282874774 0.0 0.0
2.366180993446318 0.0 0.0
2.202040983499156 0.0 0.0
2.035104414735112 0.0 0.0
1.865323550807426 0.0 0.0
1.692649946751479 0.0 0.0
1.517034389081164 0.0 0.0
1.338426706225015 0.0 0.0
1.156775924174005 0.0 0.0
0.9720301907565596 0.0 0.0
0.784136776937109 0.0 0.0
0.5930420631629705 0.0 0.0
0.3986915135514271 0.0 0.0
0.2010296266429896 0.0 0.0
0.0 0.199999999999558 0.0
0.0 0.3999999999989746 0.0
0.0 0.5999999999989464 0.0
0.0 0.7999999999994731 0.0
4.065082561150232 0.3648546699507293 0.0
4.117274722996153 0.4064765305061043 0.0
4.146239186965635 0.4666218605127571 0.0
4.146239186588658 0.5333781411388893 0.0
4.117274722147235 0.5935234705584039 0.0
4.065082560620447 0.6351453303044018 0.0
3.934917439190226 0.6351453302132268 0.0
3.882725277520537 0.5935234701418048 0.0
3.853760813071839 0.5333781396514286 0.0
3.853760813263242 0.4666218595099774 0.0
3.882725277782338 0.4064765295299076 0.0
3.934917439246251 0.3648546697597932 0.0
3.348071016817302 0.5037366844559412 0.0
4.65817771841185 0.4813089492125461 0.0
5.148432135339639 0.5000000000000013 0.0
2.851567863014233 0.5000000000000465 0.0
4.406326506211093 0.3072680842959042 0.0
3.575604791543614 0.6706702532911111 0.0
4.424395205595821 0.6706702556565258 0.0
3.593673497058965 0.3072680820819204 0.0
5.648652107845511 0.5000000000000006 0.0
2.351347890458042 0.4999999999998563 0.0
1.851146954963573 0.4999999999998219 0.0
6.148853043290459 0.4999999999999989 0.0
6.65089532386231 0.5241211434250735 0.0
1.349104674975677 0.4758788558671475 0.0
7.150713697794147 0.4858064203922342 0.0
0.8492863006035025 0.4858064203396458 0.0
4.216343713145164 0.2287135668575249 0.0
3.7836562881134 0.7712864338025908 0.0
4.346988371127422 0.5000000019594898 0.0
4.213775907987267 0.7756803165215952 0.0
3.653011628408684 0.4999999990051173 0.0
3.786224091202296 0.224319683220954 0.0
7.572712389010231 0.5763628491757339 0.0
0.4272876103144935 0.5763628498169726 0.0
4.881741322202974 0.3185523670790996 0.0
3.118258676783759 0.6814476337404539 0.0
3.126854924363118 0.2792890251323842 0.0
4.873145074373641 0.7207109754187309 0.0
5.398381996912613 0.291094588046412 0.0
5.396092528392672 0.7230702977293901 0.0
2.603907471650227 0.7230702981371074 0.0
2.601618001742297 0.2910945873520305 0.0
4.065645388412852 0.1903894420877926 0.0
3.934354612281609 0.8096105573695707 0.0
4.268393145079946 0.6292513280674802 0.0
3.731606853978594 0.3707486723017213 0.0
4.265062587797852 0.3723525870906427 0.0
3.734937412407246 0.6276474138958879 0.0
5.89991820844496 0.720584760457478 0.0
5.899661142431216 0.2940789491313893 0.0
2.100338856207466 0.7059210507243335 0.0
2.100081790085733 0.2794152396968363 0.0
4.648216390708278 0.2460745758417431 0.0
3.350865525112209 0.7519279174007294 0.0
3.351783614314077 0.2460745727859678 0.0
4.649134469923633 0.7519279206208029 0.0
6.386000070083336 0.2800687217561524 0.0
6.399946740387701 0.7091877900019353 0.0
1.613999929083956 0.7199312783619409 0.0
1.600053258667474 0.2908122092889953 0.0
1.099018086220021 0.3101534564461602 0.0
1.099018086220183 0.6898465435530818 0.0
6.900981912171285 0.3101534566801202 0.0
6.900981912171287 0.689846543319878 0.0
3.934891793257755 0.2336799984692873 0.0
4.065108206439434 0.7663200008196746 0.0
5.133077706310633 0.254681732561614 0.0
5.131620328745691 0.7509194919064351 0.0
2.866922291796803 0.7453182673725732 0.0
2.868379670398546 0.2490805081265555 0.0
0.5973224633027379 0.3123440263675117 0.0
7.402677535116692 0.3123440263206204 0.0
7.70928508668797 0.2984218335093966 0.0
0.2907149122204558 0.2984218350042115 0.0
2.359042531710287 0.2526358364218651 0.0
2.362552667743482 0.7498876177132479 0.0
5.640957467742433 0.2526358368965552 0.0
5.637447332034727 0.7498876177447886 0.0
7.330771635020911 0.7204300868765696 0.0
0.6692283641678903 0.7204300870263377 0.0
6.141991504218947 0.7500064293114952 0.0
6.143214654121697 0.2541610692540839 0.0
1.858008494097047 0.2499935706645152 0.0
1.856785344746094 0.7458389307817799 0.0
1.360037479834015 0.7503851535261052 0.0
1.363297687800482 0.2332108063209677 0.0
6.636702311691573 0.7667891933666813 0.0
6.639962519949044 0.2496148464378299 0.0
7.14328150074831 0.2292696686424185 0.0
0.8567184978980538 0.2292696684503961 0.0
4.845173759433459 0.5000000012080886 0.0
3.15482623877425 0.4999999993865263 0.0
3.514470413944982 0.5755907957035395 0.0
4.485529584365944 0.5755907996488695 0.0
4.350214515329574 0.8947484376274254 0.0
3.64978548377064 0.1052515623441257 0.0
4.356280753270322 0.1397878825788729 0.0
3.643719248073251 0.8602121180766233 0.0
4.157657982820168 0.3023031440803671 0.0
3.842342017851872 0.6976968563131654 0.0
4.149794964153143 0.6947625877680722 0.0
3.850205035403508 0.3052374120341299 0.0
4.252863769441745 0.5000000013253333 0.0
3.747136230269581 0.4999999993774377 0.0
2.66150837620265 0.4835883053501762 0.0
5.338491622258749 0.4835883052760253 0.0
7.732076714471282 0.7613785341653052 0.0
0.267923285219987 0.7613785345749642 0.0
3.482582425594127 0.3988584940714734 0.0
4.517417574829351 0.3988584973195787 0.0
7.120961454429095 0.7969630876933931 0.0
0.8790385446795201 0.7969630878928393 0.0
4.524178509919695 0.1937066442020419 0.0
3.472973035782958 0.803602443762734 0.0
4.527026959328886 0.8036024455277256 0.0
3.475821495314308 0.1937066425220846 0.0
5.834485749168302 0.4775259269822466 0.0
2.16551424934095 0.5224740729963462 0.0
4.803832126993392 0.8343163881584211 0.0
3.196167871756218 0.1656836120733276 0.0
3.196167870279283 0.834316388182051 0.0
4.803832130306974 0.1656836112805605 0.0
1.646902821176459 0.5088844228822333 0.0
6.35309717778631 0.4911155766888507 0.0
4.128745436683365 0.8608937921704661 0.0
3.871254562700506 0.1391062074145501 0.0
7.783519314041498 0.4824599318584197 0.0
0.2164806854160975 0.4824599323519634 0.0
3.981228286637499 0.1341601386487245 0.0
4.018771713398118 0.8658398609794804 0.0
4.757705393330306 0.6277793253200102 0.0
3.245404476813698 0.3720431195654205 0.0
3.262406961538709 0.609092082228193 0.0
4.738552632749474 0.3854106153034425 0.0
4.980576921401999 0.1828043249223437 0.0
3.019423077460087 0.8171956749482756 0.0
4.975386875116307 0.8288560892267683 0.0
3.024613123995747 0.1711439108946455 0.0
7.537862127958827 0.7914398748884439 0.0
0.46213787149577 0.7914398749623154 0.0
4.150965283491015 0.1232311208167031 0.0
3.849034718225983 0.8767688792466098 0.0
0.6330166515036239 0.5212993800799176 0.0
7.366983347335347 0.5212993798709434 0.0
5.001451172914062 0.4591396125040952 0.0
2.998548825585332 0.5408603877155073 0.0
5.250532135494552 0.1623854812497458 0.0
5.24999687257574 0.8404382486850067 0.0
2.749794930508214 0.8396380739052673 0.0
2.749676059914328 0.161585306286623 0.0
1.150631951549359 0.5017906253149568 0.0
6.85747267660715 0.5137706215776152 0.0
2.938770240933895 0.3859183074771494 0.0
5.061229757952985 0.6140816927005173 0.0
5.521883200863776 0.8371838481144578 0.0
5.520780843451154 0.1567733764659754 0.0
2.479219155991939 0.1567733759623464 0.0
2.478116798894765 0.8371838481096507 0.0
2.208224060227917 0.1725929992863016 0.0
2.214655190115911 0.821187355218689 0.0
5.791775938918927 0.8274070011383262 0.0
5.785558009721889 0.1789659155514431 0.0
5.243140500145841 0.3651007420679131 0.0
5.247758683472709 0.6318228659349833 0.0
2.748336099792684 0.6332079670712092 0.0
2.766145970608876 0.3583112578457802 0.0
2.500794992947401 0.4517155340697119 0.0
5.499205006433885 0.4517155344186723 0.0
3.472119223331378 0.69283875816516 0.0
4.527880773131323 0.6928387614752662 0.0
2.445947440949104 0.6396216022327238 0.0
5.554052558509333 0.6396216019605415 0.0
[...]
POINT_DATA 494

VECTORS Velocity float
0.0000000000000000 0.0000000000000000 0.0
0.8198825816766385 -0.1381022513502999 0.0
0.0000000000000000 0.0000000000000000 0.0
0.0000000000000000 0.0000000000000000 0.0
0.0000000000000000 0.0000000000000000 0.0
0.0000000000000000 0.0000000000000000 0.0
0.0000000000000000 0.0000000000000000 0.0
0.0000000000000000 0.0000000000000000 0.0
0.0000000000000000 0.0000000000000000 0.0
0.0000000000000000 0.0000000000000000 0.0
0.0000000000000000 0.0000000000000000 0.0
0.0000000000000000 0.0000000000000000 0.0
0.0000000000000000 0.0000000000000000 0.0
0.0000000000000000 0.0000000000000000 0.0
0.0000000000000000 0.0000000000000000 0.0
0.0000000000000000 0.0000000000000000 0.0
0.0000000000000000 0.0000000000000000 0.0
0.0000000000000000 0.0000000000000000 0.0
0.0000000000000000 0.0000000000000000 0.0
0.0000000000000000 0.0000000000000000 0.0
0.0000000000000000 0.0000000000000000 0.0
0.0000000000000000 0.0000000000000000 0.0
0.0000000000000000 0.0000000000000000 0.0
0.0000000000000000 0.0000000000000000 0.0
0.0000000000000000 0.0000000000000000 0.0
0.0000000000000000 0.0000000000000000 0.0
0.0000000000000000 0.0000000000000000 0.0
0.0000000000000000 0.0000000000000000 0.0
0.0000000000000000 0.0000000000000000 0.0
0.0000000000000000 0.0000000000000000 0.0
0.0000000000000000 0.0000000000000000 0.0
0.0000000000000000 0.0000000000000000 0.0
0.0000000000000000 0.0000000000000000 0.0
0.0000000000000000 0.0000000000000000 0.0
0.0000000000000000 0.0000000000000000 0.0
0.0000000000000000 0.0000000000000000 0.0
0.0000000000000000 0.0000000000000000 0.0
0.0000000000000000 0.0000000000000000 0.0
0.0000000000000000 0.0000000000000000 0.0
0.0000000000000000 0.0000000000000000 0.0
0.0000000000000000 0.0000000000000000 0.0
0.0000000000000000 0.0000000000000000 0.0
0.0000000000000000 0.0000000000000000 0.0
0.0000000000000000 0.0000000000000000 0.0
0.0000000000000000 0.0000000000000000 0.0
0.0000000000000000 0.0000000000000000 0.0
0.0000000000000000 0.0000000000000000 0.0
0.0000000000000000 0.0000000000000000 0.0
0.0000000000000000 0.0000000000000000 0.0
0.0000000000000000 0.0000000000000000 0.0
0.0000000000000000 0.0000000000000000 0.0
0.0000000000000000 0.0000000000000000 0.0
0.0000000000000000 0.0000000000000000 0.0
0.0000000000000000 0.0000000000000000 0.0
1.0771095123357726 0.5441275002921589 0.0
0.9956062981158060 0.1373510111722007 0.0
0.9602525156090809 -0.0882930977045963 0.0
1.0633903681827428 -0.4541016588942342 0.0
0.0000000000000000 0.0000000000000000 0.0
0.0000000000000000 0.0000000000000000 0.0
0.0000000000000000 0.0000000000000000 0.0
0.0000000000000000 0.0000000000000000 0.0
0.0000000000000000 0.0000000000000000 0.0
0.0000000000000000 0.0000000000000000 0.0
0.0000000000000000 0.0000000000000000 0.0
0.0000000000000000 0.0000000000000000 0.0
0.0000000000000000 0.0000000000000000 0.0
0.0000000000000000 0.0000000000000000 0.0
0.0000000000000000 0.0000000000000000 0.0
0.0000000000000000 0.0000000000000000 0.0
0.0000000000000000 0.0000000000000000 0.0
0.0000000000000000 0.0000000000000000 0.0
0.0000000000000000 0.0000000000000000 0.0
0.0000000000000000 0.0000000000000000 0.0
0.0000000000000000 0.0000000000000000 0.0
0.0000000000000000 0.0000000000000000 0.0
0.0000000000000000 0.0000000000000000 0.0
0.0000000000000000 0.0000000000000000 0.0
0.0000000000000000 0.0000000000000000 0.0
0.0000000000000000 0.0000000000000000 0.0
0.0000000000000000 0.0000000000000000 0.0
0.0000000000000000 0.0000000000000000 0.0
0.0000000000000000 0.0000000000000000 0.0
0.0000000000000000 0.0000000000000000 0.0
0.0000000000000000 0.0000000000000000 0.0
0.0000000000000000 0.0000000000000000 0.0
0.0000000000000000 0.0000000000000000 0.0
0.0000000000000000 0.0000000000000000 0.0
0.0000000000000000 0.0000000000000000 0.0
0.0000000000000000 0.0000000000000000 0.0
0.0000000000000000 0.0000000000000000 0.0
0.0000000000000000 0.0000000000000000 0.0
0.0000000000000000 0.0000000000000000 0.0
0.0000000000000000 0.0000000000000000 0.0
0.0000000000000000 0.0000000000000000 0.0
0.0000000000000000 0.0000000000000000 0.0
0.0000000000000000 0.0000000000000000 0.0
0.0000000000000000 0.0000000000000000 0.0
0.0000000000000000 0.0000000000000000 0.0
0.0000000000000000 0.0000000000000000 0.0
0.0000000000000000 0.0000000000000000 0.0
0.0000000000000000 0.0000000000000000 0.0
0.0000000000000000 0.0000000000000000 0.0
0.0000000000000000 0.0000000000000000 0.0
1.0000000000000000 0.0000000000000000 0.0
1.0000000000000000 0.0000000000000000 0.0
1.0000000000000000 0.0000000000000000 0.0
1.0000000000000000 0.0000000000000000 0.0
0.0000000000000000 0.0000000000000000 0.0
0.0000000000000000 0.0000000000000000 0.0
0.0000000000000000 0.0000000000000000 0.0
0.0000000000000000 0.0000000000000000 0.0
0.0000000000000000 0.0000000000000000 0.0
0.0000000000000000 0.0000000000000000 0.0
0.0000000000000000 0.0000000000000000 0.0
0.0000000000000000 0.0000000000000000 0.0
0.0000000000000000 0.0000000000000000 0.0
0.0000000000000000 0.0000000000000000 0.0
0.0000000000000000 0.0000000000000000 0.0
0.0000000000000000 0.0000000000000000 0.0
1.5870145407478853 -0.0104264052152474 0.0
1.5896949586361786 0.0145366264202893 0.0
1.6345129345650231 -0.0114458789884055 0.0
1.6316345648970210 -0.0186761910396903 0.0
1.3467656990221046 0.0788573030236375 0.0
1.3689793935714121 0.0618999491850257 0.0
1.4085682415781042 -0.1079500655829368 0.0
1.3872189488386357 -0.1286136964922137 0.0
1.6103345424575255 0.0009598382230885 0.0
1.6097639557807044 -0.0068544458481667 0.0
1.5570874915653072 0.0051544355232746 0.0
1.5561358437375425 -0.0007433151664565 0.0
1.5726417749855457 -0.0317674977287655 0.0
1.5726585300073985 0.0163386171289241 0.0
1.6556675072192633 0.0094286449086641 0.0
1.6522991317998270 -0.0166489093322720 0.0
1.3221383343132473 0.3145150686009575 0.0
1.3215402230762827 0.3084037985160286 0.0
1.3529055763742088 0.0225370729889859 0.0
1.3564415213612113 -0.2292033244063964 0.0
1.3524597808220140 0.0172344280554094 0.0
1.3565253190822137 -0.2332808631818653 0.0
1.5491975632711725 0.0145130299288828 0.0
1.5327701598946295 -0.0343687955159972 0.0
1.3404869911974777 0.0068177054166883 0.0
1.3418790280630890 0.0062758825951626 0.0
1.2664038916131786 -0.0005133404187832 0.0
1.2580973373069948 -0.0020863672892511 0.0
1.3048726004665485 -0.0061566754224614 0.0
1.2122295104556893 -0.0147043475572173 0.0
1.1837451188409782 0.0084994940676671 0.0
1.3260591147243308 0.0029815719560726 0.0
1.4606483047942431 0.1355208485371161 0.0
1.4610460313444669 0.1334216640134963 0.0
1.4309387619662293 -0.2706677462696950 0.0
1.4366384541262593 -0.2747934001031472 0.0
1.4412787326798420 0.3505421443860082 0.0
1.4361152270277846 0.3487932994068382 0.0
1.1815471357301390 -0.0289517141000457 0.0
1.3019434056064254 -0.0075440650201599 0.0
1.2931343721953239 -0.0162575870685348 0.0
1.1863145576597109 -0.0308536054193840 0.0
1.0831104785882857 -0.0625679936898859 0.0
1.0879385515604030 -0.0527108318830691 0.0
1.1006227097885160 0.0386555986189951 0.0
1.1089467440055687 0.0247004918785755 0.0
1.2551179748634707 0.0047021737865719 0.0
1.2406908575341096 -0.0201900051245017 0.0
1.2443417482893278 0.0184346195913156 0.0
1.2504592995149428 -0.0025451933487206 0.0
1.4401704275809322 -0.0306150808204884 0.0
1.3209284377580179 0.0532293866864800 0.0
1.4449509457581144 0.0333977731008272 0.0
1.3129726217674913 -0.0469369119088782 0.0
1.5789117175105518 -0.2268074162549677 0.0
1.5785221707651418 -0.2262638576273027 0.0
1.1572889280562928 -0.0531332936867383 0.0
1.1812668061434062 0.0572036483528907 0.0
1.1450026662815058 -0.0570626597118783 0.0
1.1896269337126693 0.0451321377298324 0.0
1.4291404796482274 0.0320919743690719 0.0
1.4397357823012495 -0.0295776384371154 0.0
1.2948694184247802 -0.1606630167053972 0.0
1.2811639365321714 0.1934116718550550 0.0
1.1906670746777928 0.0505735723994126 0.0
1.1398631287266645 -0.0046648230448222 0.0
1.1869400942751627 -0.0374507343069519 0.0
1.1549800471370444 0.0310452789825506 0.0
1.2893302675944454 0.0085279905330118 0.0
1.2962512341265033 -0.0146589817264186 0.0
1.1569398756673153 0.0377969226483460 0.0
1.2183601257513184 -0.0662676339700409 0.0
1.1595946532718242 0.0407992597751076 0.0
1.2153478549358818 -0.0648424415345107 0.0
1.1698015778036754 0.0693922364362574 0.0
1.1449129014249446 -0.0398360430265944 0.0
1.1003657503836990 -0.0579486766595754 0.0
1.2050952832125785 0.0510444508590201 0.0
1.1031880384225561 -0.0235554347502466 0.0
1.0971375835206443 0.0191312710859748 0.0
1.6055956418930786 0.0091432953260742 0.0
1.6075907640314555 -0.0001770300128160 0.0
1.4774204556932875 0.0339603669855847 0.0
1.4951857540409863 -0.0677048395823822 0.0
0.4791480816483564 -0.0130278565918911 0.0
0.4615505330925997 -0.0147698445318553 0.0
0.5770883522738830 0.1059851657932613 0.0
0.5960498025338097 0.1052684236157379 0.0
1.4639547235914319 0.4427463569632268 0.0
1.4592678027652524 0.4396218462955021 0.0
1.5427985206622479 -0.3553714710179314 0.0
1.5448528441634510 -0.3565246856132677 0.0
0.9854606422016963 0.0316976563393074 0.0
0.9860704279575876 0.0427190754650756 0.0
1.6108891564618990 0.0311574848377443 0.0
1.6033654810501858 -0.0430314600744083 0.0
1.1589820146988026 0.1959377884756091 0.0
1.1962952983386095 -0.2745246940397061 0.0
1.5175270123352262 -0.0540272746209438 0.0
1.4946894640885078 0.0135709832595043 0.0
0.7371116681978803 -0.0071698828418317 0.0
0.7586354061639392 0.0057962504673749 0.0
0.9052533855207558 -0.0165487035620345 0.0
0.9198780378997948 -0.0195626498531375 0.0
0.9350587569499770 0.0039809163542401 0.0
0.9230990246543398 0.0037634283616279 0.0
1.5771534209513678 -0.0259489472474202 0.0
1.5769999559181795 -0.0543974599609966 0.0
0.6685757155929664 -0.0848869172933021 0.0
0.6675448204817696 -0.0859163755652199 0.0
0.7153382057063815 0.0655669023774090 0.0
0.7146692497169553 0.0644823995194252 0.0
1.4958590178585864 0.0477296478208156 0.0
1.4963723224987435 0.0323108359980927 0.0
0.9008474348333075 -0.1230433445626010 0.0
0.9014970826914829 -0.1261451092689623 0.0
1.3576933317204323 0.0007589100882041 0.0
1.2764639082628868 0.0143668243088696 0.0
1.0035564946447415 -0.0938061039850695 0.0
1.0039569337737138 -0.0936780545041344 0.0
1.5125659852781068 -0.0297475266272128 0.0
1.5181641815871014 -0.0325956882459316 0.0
1.4804620743478158 0.0409454113179913 0.0
1.4843945187820795 0.0479640694145706 0.0
0.7529933396100605 -0.0071281335722764 0.0
0.7561001549322623 -0.0060338425710326 0.0
0.7071438760251438 0.0205893537729891 0.0
0.6971251716284044 0.0180866763945622 0.0
0.8171643471847417 0.0370362115699207 0.0
0.8404384100302325 -0.0646782636527139 0.0
0.7470402985967902 0.0890634515706418 0.0
0.7496548425622553 0.0862095899989403 0.0
1.5779995164978149 -0.0108604850073835 0.0
1.5880206044294163 0.0057454820382621 0.0
1.5890838692091325 -0.0077505670207095 0.0
1.5898827733048553 -0.0075158422819696 0.0
0.7030595486555414 -0.0029008379835894 0.0
0.7272705374780117 0.0259876305810188 0.0
0.7079229364220948 -0.0128558942806026 0.0
0.7055767344843463 0.0182829971918129 0.0
1.6263529518348134 -0.0017030137242825 0.0
1.6296056272920401 -0.0445295013898325 0.0
1.5186458818555477 -0.0126652640731661 0.0
1.5198356102945723 -0.0150314569287376 0.0
0.7154483501246355 -0.0105403176380955 0.0
0.6387051230061870 0.0177647836388086 0.0
0.6509057949250784 -0.0196124418715287 0.0
0.6975349068857234 0.0088696371135212 0.0
0.8055903999203673 0.0304563718943254 0.0
0.7791865568692889 -0.0215935613044133 0.0
0.8099219470264032 0.0210126864025646 0.0
0.7933261412321927 -0.0272804717000605 0.0
1.4133371220040591 -0.0092110432717014 0.0
1.4376520872684995 0.0009192467995769 0.0
1.4166140716009399 -0.0014379859680757 0.0
1.4376201676217457 0.0063103454520401 0.0
1.5778976698356122 0.0019633504078945 0.0
1.5664318142854281 -0.0105196008686943 0.0
1.3137920935753533 0.0089789563697502 0.0
1.3567562518094709 -0.0292443340733624 0.0
1.4088792819930247 0.0032389071451342 0.0
1.4163041243263053 -0.0133978668353523 0.0
0.7221620702478022 -0.0170193921409915 0.0
0.6698711326256577 0.0191037104044929 0.0
0.7235597165798425 -0.0184462781014371 0.0
0.6715623198486025 0.0205444133865623 0.0
0.5605280602083645 -0.1160912802433264 0.0
0.5645867543948490 -0.1109654088903640 0.0
1.2864377121686397 0.1177551873333332 0.0
1.2855800550449989 0.1154458967238876 0.0
1.4211489510703679 -0.0149929305303925 0.0
1.3834763172057065 -0.0393758849855088 0.0
1.3873076311863239 0.0224870698620700 0.0
1.4223708053214807 -0.0026825272568644 0.0
0.7984575837125383 -0.0652060992864046 0.0
0.7979904446811557 0.0749382838340053 0.0
1.1195188639863249 -0.1540168822972100 0.0
1.1200303576164654 -0.1500799218790904 0.0
1.1238290801958077 0.2181219561171198 0.0
1.1191535780294204 0.2195543209477772 0.0
0.8463725280077105 -0.0427615786122888 0.0
0.8073549983504240 0.0489806217032451 0.0
0.8419967766004290 -0.0385191408366421 0.0
0.8130018784453492 0.0551651827198752 0.0
1.5536000031533270 -0.0100457106707238 0.0
1.5539409525651076 -0.0191923053318512 0.0
0.6849897022633071 -0.0209932305325454 0.0
0.7034429988678480 0.0036183403722584 0.0
0.6471313915658409 0.0248443440249192 0.0
0.7315681926120271 0.0421805515469709 0.0
0.6608202618141941 0.0018576331678252 0.0
0.6656585050918907 -0.0023756660413158 0.0
1.4093962713410793 -0.2057933936146949 0.0
1.4063154357996028 -0.1977520117292052 0.0
1.2728848598797451 0.2575140180495895 0.0
1.2733900338279276 0.2415220525652621 0.0
0.4828028861131842 -0.0512502471856828 0.0
0.4905657572521022 -0.0505306082802862 0.0
0.4894145416002931 0.0523218961780646 0.0
0.4974009468597110 0.0505954920565194 0.0
1.4018129878209558 -0.0058586234281981 0.0
1.4048249987638060 -0.0031747415003081 0.0
1.4188452246636403 -0.1567748171920845 0.0
1.4335878941735645 -0.1553775737220385 0.0
1.4410815833404227 0.1722711563371167 0.0
1.4223555984009675 0.1691563948120917 0.0
0.8526018076853719 0.0395962406384225 0.0
0.7444120894365513 -0.1087285845326484 0.0
0.8386343994372699 0.0509225275444608 0.0
0.7627224337404699 -0.0926032975710239 0.0
1.3969270566528948 -0.0447014795311832 0.0
1.3695441605798031 0.0514146788153190 0.0
1.3921547857171159 -0.0376842654134239 0.0
1.3727575488312986 0.0595105013008847 0.0
1.5100584766777176 0.0004960930497319 0.0
1.5087042647255318 -0.0306663755014901 0.0
0.6468883246238114 0.0019989205961461 0.0
0.6495684253506795 0.0045884159488264 0.0
1.3902170927812720 0.0792644163620762 0.0
1.4025650979190842 0.0530818095174882 0.0
1.5194630843362167 -0.0418880979928632 0.0
1.4951999660833084 0.0457152334301838 0.0
0.7031634995244906 0.0902543066090210 0.0
0.6905520346848615 0.0977678700357706 0.0
1.4624298990457165 -0.0287727066765606 0.0
1.4144351254091141 0.0354823109982916 0.0
1.4139258832841963 -0.0496328166740730 0.0
1.4620829445477397 0.0042310533044555 0.0
1.6331429114087674 0.0190878313115492 0.0
1.6465174803043523 -0.0261714497013315 0.0
0.5033252524811844 0.0002368907513976 0.0
0.5014117104305372 0.0017942780887408 0.0
1.5287804163494965 -0.0316424929110935 0.0
1.5258287728174840 0.0312078479927395 0.0
0.9374198613551838 0.2269530190275971 0.0
0.9058119673715832 -0.2232799649400633 0.0
1.4970709511224931 -0.0153619847318205 0.0
1.4949851596011405 -0.0051010937008051 0.0
1.3122866536122413 0.0059995080139133 0.0
1.3548420736576710 -0.0302730114286964 0.0
1.3234511356071419 -0.0163910562325087 0.0
1.3276809885250089 -0.0156854487227357 0.0
1.2050062003379209 -0.1187722893938444 0.0
1.2050579917065127 -0.1188359131765931 0.0
1.4884083961892403 -0.0179760904390505 0.0
1.4395138491925139 0.0007046177984787 0.0
1.4526047451263762 -0.0304719966219707 0.0
1.4410690568483351 0.0317778588437516 0.0
1.4958745720496314 -0.0235031722821074 0.0
1.4456883444497215 0.0062380883931130 0.0
0.4301412353388048 0.0479222739842906 0.0
0.4327624581420922 0.0445210565837416 0.0
0.4257393604497690 -0.0316896693900333 0.0
0.4187048574252074 -0.0350481134980473 0.0
1.4355808389898641 -0.3272669758978421 0.0
1.4367824765252379 -0.3301497804151636 0.0
0.3968937349976567 0.0067088505544261 0.0
0.4058617944942569 -0.0109088965680069 0.0
1.5124072407838542 0.3243390691201283 0.0
1.5137572616227364 0.3190804142913871 0.0
0.5924945430350181 0.0985509153651533 0.0
0.5933547877089669 0.0974454448573398 0.0
1.5179990097750193 0.0235485026260991 0.0
1.5213865143367609 -0.0227016396401814 0.0
1.3282656179351491 -0.0150241909012386 0.0
1.3416685456279129 0.0140615747849339 0.0
1.4581702781480708 -0.3708142825263216 0.0
1.4539489782352599 -0.3674062943335784 0.0
1.3979770142481283 0.4795897735498726 0.0
1.4076020922272245 0.4764457204480733 0.0
1.5863120446644925 0.0088240835749415 0.0
1.5842289881070619 0.0092718953120810 0.0
0.4858738501627093 0.0545515640629605 0.0
0.4646995270859459 -0.0606225508500699 0.0
0.4788867322836855 0.0585507726092981 0.0
0.4746307416224744 -0.0569556501337751 0.0
0.3900220571255703 0.0278446177240145 0.0
0.4110171099820549 0.0280284729636859 0.0
0.4256547915992945 -0.0151393384893445 0.0
0.4473582554753321 -0.0164620343052691 0.0
1.2395939095988937 -0.2018296931002694 0.0
1.2566004769464110 -0.2028003959900203 0.0
1.2685357217937614 0.2743996257905144 0.0
1.2523978482423697 0.2737207374332332 0.0
1.2071818591357761 -0.2719422785896844 0.0
1.1809307926480006 0.2659281987572078 0.0
1.4506175266674175 0.0033850351728611 0.0
1.4574686107275618 0.0156484979211254 0.0
0.5099237408041881 -0.0092359143463472 0.0
0.4849226679328296 -0.0005324410257944 0.0
0.5200922917203261 0.0142498399059680 0.0
0.4983401506826205 0.0044146425444063 0.0
1.4857804096473048 -0.0208414457738444 0.0
1.4737945131165828 0.0051693215465578 0.0
1.3336835076020186 -0.0258578058191893 0.0
1.3347065492013763 -0.0233595664124210 0.0
0.8721078648407428 0.2643182348280863 0.0
0.9351782600532824 -0.2433771763981264 0.0
1.0431776851157077 0.0771851068162536 0.0
1.0490786964701184 0.0829297135440663 0.0
1.0613234949988697 -0.1006066970355045 0.0
1.0613412862819487 -0.1027201002013103 0.0
0.6352751482432004 -0.1341012206924799 0.0
0.6496412584164456 0.1422515381272864 0.0
0.2877749229220903 -0.0249083820249493 0.0
0.2906585226376664 -0.0240848236488704 0.0
0.2968230545656080 -0.0100719965057578 0.0
0.2957510909435146 -0.0099498288279274 0.0
0.3561757618092905 -0.0116584602890251 0.0
0.3559598679821847 0.0118241732700886 0.0
1.2242234351877144 0.3282871789762992 0.0
1.1734605923647552 -0.2645144152525412 0.0
0.5059185103975535 -0.0602268792259575 0.0
0.4948432843284107 0.0720953416253970 0.0
0.5050368871506843 -0.0594471310542504 0.0
0.4961082229378096 0.0738810887975518 0.0
1.4848761756738873 0.0482138248400553 0.0
1.4955455515929406 -0.0612010285003234 0.0
0.4521882836873328 0.0758305787696483 0.0
0.5224939486023275 -0.1242953264224969 0.0
0.9594850369637254 0.0607500844039302 0.0
0.9558226060525575 0.0591191364067904 0.0
0.9826830923184130 -0.0575688136884825 0.0
0.9833245169992041 -0.0575380747909516 0.0
0.8755268308228822 0.0283373855464184 0.0
0.8760038501097621 0.0378028950624750 0.0
0.5328582272319174 0.0442845951892787 0.0
0.5078579286442827 -0.0575261270831508 0.0
0.5300662526676130 0.0429336984919593 0.0
0.5066030266096282 -0.0577003706080217 0.0
1.5436068248834534 -0.0060112012457786 0.0
1.5400943800753906 -0.0031437525500014 0.0
0.4249553868022797 -0.0722145154086742 0.0
0.4742219547613147 0.0498302640479819 0.0
0.4592695348231471 0.0610880494345344 0.0
0.4444007548058168 -0.0608185510215539 0.0
1.0195465732631002 0.0378073484831897 0.0
1.0543807496019528 0.0402384437367041 0.0
1.0849759180941705 -0.0548160739121535 0.0
1.0610066364095241 -0.0581059165648561 0.0
1.3129570026236999 0.0176123499577672 0.0
1.3102315620243981 0.0254618968498265 0.0
1.3550267653652583 -0.0672286251316739 0.0
1.3686241770371124 -0.0401348474658251 0.0
1.0639825803493692 -0.1205648036624715 0.0
1.0596099739753968 -0.1267949134417663 0.0
0.5288597662140716 -0.0016717229754391 0.0
0.5301691291773094 0.0077853312557222 0.0
0.5361458781801219 0.0042023150501432 0.0
0.5206904359627559 -0.0061029431158802 0.0