# vtk DataFile Version 3.0
LucasCarvalhoTCC Results
ASCII

DATASET POLYDATA
FIELD FieldData 1
TIME 1 1 double
3.9000000000000004

POINTS 494 float
0.0 0.0 0.0
8.0 0.0 0.0
8.0 1.0 0.0
0.0 1.0 0.0
4.0 0.0 0.0
4.0 1.0 0.0
4.0 0.35 0.0
4.0 0.65 0.0
0.2010296266416496 1.0 0.0
0.3986915135488555 1.0 0.0
0.5930420631591132 1.0 0.0
0.7841367769318693 1.0 0.0
0.9720301907499852 1.0 0.0
1.156775924166146 1.0 0.0
1.33842670621592 1.0 0.0
1.517034389070868 1.0 0.0
1.69264994674003 1.0 0.0
1.865323550794866 1.0 0.0
2.035104414722059 1.0 0.0
2.202040983487818 1.0 0.0
2.366180993436638 1.0 0.0
2.527571282866703 1.0 0.0
2.686257831390245 1.0 0.0
2.842286022819771 1.0 0.0
2.995700353514032 1.0 0.0
3.146544637914273 1.0 0.0
3.294861880721452 1.0 0.0
3.440694398353104 1.0 0.0
3.58408394609007 1.0 0.0
3.725071294102791 1.0 0.0
3.863696788294668 1.0 0.0
4.136303211705004 1.0 0.0
4.274928705896546 1.0 0.0
4.415916053908917 1.0 0.0
4.55930560164552 1.0 0.0
4.7051381192768 1.0 0.0
4.853455362083593 1.0 0.0
5.004299646483437 1.0 0.0
5.157713977177285 1.0 0.0
5.313742168606385 1.0 0.0
5.472428717129489 1.0 0.0
5.6338190065591 1.0 0.0
5.797959016507455 1.0 0.0
5.96489558527273 1.0 0.0
6.134676449200184 1.0 0.0
6.307350053255487 1.0 0.0
6.482965610925135 1.0 0.0
6.661573293780584 1.0 0.0
6.843224075830887 1.0 0.0
7.027969809247587 1.0 0.0
7.215863223066262 1.0 0.0
7.4069579368396 1.0 0.0
7.601308486450315 1.0 0.0
7.798970373357896 1.0 0.0
8.0 0.7999999999999996 0.0
8.0 0.6000000000013874 0.0
8.0 0.4000000000016649 0.0
8.0 0.2000000000008324 0.0
7.798970373357898 0.0 0.0
7.601308486450317 0.0 0.0
7.406957936839601 0.0 0.0
7.215863223066265 0.0 0.0
7.02796980924759 0.0 0.0
6.843224075830888 0.0 0.0
6.661573293780592 0.0 0.0
6.482965610925139 0.0 0.0
6.307350053255492 0.0 0.0
6.134676449200188 0.0 0.0
5.964895585272735 0.0 0.0
5.797959016507459 0.0 0.0
5.633819006559103 0.0 0.0
5.472428717129493 0.0 0.0
5.313742168606389 0.0 0.0
5.157713977177288 0.0 0.0
5.004299646483441 0.0 0.0
4.853455362083597 0.0 0.0
4.705138119276803 0.0 0.0
4.559305601645523 0.0 0.0
4.415916053908919 0.0 0.0
4.274928705896549 0.0 0.0
4.136303211705007 0.0 0.0
3.863696788294383 0.0 0.0
3.725071294102209 0.0 0.0
3.584083946089184 0.0 0.0
3.440694398352564 0.0 0.0
3.29486188072223 0.0 0.0
3.146544637916415 0.0 0.0
2.995700353517581 0.0 0.0
2.842286022824779 0.0 0.0
2.68625783139676 0.0 0.0
2.527571282874774 0.0 0.0
2.366180993446318 0.0 0.0
2.202040983499156 0.0 0.0
2.035104414735112 0.0 0.0
1.865323550807426 0.0 0.0
1.692649946751479 0.0 0.0
1.517034389081164 0.0 0.0
1.338426706225015 0.0 0.0
1.156775924174005 0.0 0.0
0.9720301907565596 0.0 0.0
0.784136776937109 0.0 0.0
0.5930420631629705 0.0 0.0
0.3986915135514271 0.0 0.0
0.2010296266429896 0.0 0.0
0.0 0.199999999999558 0.0
0.0 0.3999999999989746 0.0
0.0 0.5999999999989464 0.0
0.0 0.7999999999994731 0.0
4.065082561150232 0.3648546699507293 0.0
4.117274722996153 0.4064765305061043 0.0
4.146239186965635 0.4666218605127571 0.0
4.146239186588658 0.5333781411388893 0.0
4.117274722147235 0.5935234705584039 0.0
4.065082560620447 0.6351453303044018 0.0
3.934917439190226 0.6351453302132268 0.0
3.882725277520537 0.5935234701418048 0.0
3.853760813071839 0.5333781396514286 0.0
3.853760813263242 0.4666218595099774 0.0
3.882725277782338 0.4064765295299076 0.0
3.934917439246251 0.3648546697597932 0.0
3.348071016817302 0.5037366844559412 0.0
4.65817771841185 0.4813089492125461 0.0
5.148432135339639 0.5000000000000013 0.0
2.851567863014233 0.5000000000000465 0.0
4.406326506211093 0.3072680842959042 0.0
3.575604791543614 0.6706702532911111 0.0
4.424395205595821 0.6706702556565258 0.0
3.593673497058965 0.3072680820819204 0.0
5.648652107845511 0.5000000000000006 0.0
2.351347890458042 0.4999999999998563 0.0
1.851146954963573 0.4999999999998219 0.0
6.148853043290459 0.4999999999999989 0.0
6.65089532386231 0.5241211434250735 0.0
1.349104674975677 0.4758788558671475 0.0
7.150713697794147 0.4858064203922342 0.0
0.8492863006035025 0.4858064203396458 0.0
4.216343713145164 0.2287135668575249 0.0
3.7836562881134 0.7712864338025908 0.0
4.346988371127422 0.5000000019594898 0.0
4.213775907987267 0.7756803165215952 0.0
3.653011628408684 0.4999999990051173 0.0
3.786224091202296 0.224319683220954 0.0
7.572712389010231 0.5763628491757339 0.0
0.4272876103144935 0.5763628498169726 0.0
4.881741322202974 0.3185523670790996 0.0
3.118258676783759 0.6814476337404539 0.0
3.126854924363118 0.2792890251323842 0.0
4.873145074373641 0.7207109754187309 0.0
5.398381996912613 0.291094588046412 0.0
5.396092528392672 0.7230702977293901 0.0
2.603907471650227 0.7230702981371074 0.0
2.601618001742297 0.2910945873520305 0.0
4.065645388412852 0.1903894420877926 0.0
3.934354612281609 0.8096105573695707 0.0
4.268393145079946 0.6292513280674802 0.0
3.731606853978594 0.3707486723017213 0.0
4.265062587797852 0.3723525870906427 0.0
3.734937412407246 0.6276474138958879 0.0
5.89991820844496 0.720584760457478 0.0
5.899661142431216 0.2940789491313893 0.0
2.100338856207466 0.7059210507243335 0.0
2.100081790085733 0.2794152396968363 0.0
4.648216390708278 0.2460745758417431 0.0
3.350865525112209 0.7519279174007294 0.0
3.351783614314077 0.2460745727859678 0.0
4.649134469923633 0.7519279206208029 0.0
6.386000070083336 0.2800687217561524 0.0
6.399946740387701 0.7091877900019353 0.0
1.613999929083956 0.7199312783619409 0.0
1.600053258667474 0.2908122092889953 0.0
1.099018086220021 0.3101534564461602 0.0
1.099018086220183 0.6898465435530818 0.0
6.900981912171285 0.3101534566801202 0.0
6.900981912171287 0.689846543319878 0.0
3.934891793257755 0.2336799984692873 0.0
4.065108206439434 0.7663200008196746 0.0
5.133077706310633 0.254681732561614 0.0
5.131620328745691 0.7509194919064351 0.0
2.866922291796803 0.7453182673725732 0.0
2.868379670398546 0.2490805081265555 0.0
0.5973224633027379 0.3123440263675117 0.0
7.402677535116692 0.3123440263206204 0.0
7.70928508668797 0.2984218335093966 0.0
0.2907149122204558 0.2984218350042115 0.0
2.359042531710287 0.2526358364218651 0.0
2.362552667743482 0.7498876177132479 0.0
5.640957467742433 0.2526358368965552 0.0
5.637447332034727 0.7498876177447886 0.0
7.330771635020911 0.7204300868765696 0.0
0.6692283641678903 0.7204300870263377 0.0
6.141991504218947 0.7500064293114952 0.0
6.143214654121697 0.2541610692540839 0.0
1.858008494097047 0.2499935706645152 0.0
1.856785344746094 0.7458389307817799 0.0
1.360037479834015 0.7503851535261052 0.0
1.363297687800482 0.2332108063209677 0.0
6.636702311691573 0.7667891933666813 0.0
6.639962519949044 0.2496148464378299 0.0
7.14328150074831 0.2292696686424185 0.0
0.8567184978980538 0.2292696684503961 0.0
4.845173759433459 0.5000000012080886 0.0
3.15482623877425 0.4999999993865263 0.0
3.514470413944982 0.5755907957035395 0.0
4.485529584365944 0.5755907996488695 0.0
4.350214515329574 0.8947484376274254 0.0
3.64978548377064 0.1052515623441257 0.0
4.356280753270322 0.1397878825788729 0.0
3.643719248073251 0.8602121180766233 0.0
4.157657982820168 0.3023031440803671 0.0
3.842342017851872 0.6976968563131654 0.0
4.149794964153143 0.6947625877680722 0.0
3.850205035403508 0.3052374120341299 0.0
4.252863769441745 0.5000000013253333 0.0
3.747136230269581 0.4999999993774377 0.0
2.66150837620265 0.4835883053501762 0.0
5.338491622258749 0.4835883052760253 0.0
7.732076714471282 0.7613785341653052 0.0
0.267923285219987 0.7613785345749642 0.0
3.482582425594127 0.3988584940714734 0.0
4.517417574829351 0.3988584973195787 0.0
7.120961454429095 0.7969630876933931 0.0
0.8790385446795201 0.7969630878928393 0.0
4.524178509919695 0.1937066442020419 0.0
3.472973035782958 0.803602443762734 0.0
4.527026959328886 0.8036024455277256 0.0
3.475821495314308 0.1937066425220846 0.0
5.834485749168302 0.4775259269822466 0.0
2.16551424934095 0.5224740729963462 0.0
4.803832126993392 0.8343163881584211 0.0
3.196167871756218 0.1656836120733276 0.0
3.196167870279283 0.834316388182051 0.0
4.803832130306974 0.1656836112805605 0.0
1.646902821176459 0.5088844228822333 0.0
6.35309717778631 0.4911155766888507 0.0
4.128745436683365 0.8608937921704661 0.0
3.871254562700506 0.1391062074145501 0.0
7.783519314041498 0.4824599318584197 0.0
0.2164806854160975 0.4824599323519634 0.0
3.981228286637499 0.1341601386487245 0.0
4.018771713398118 0.8658398609794804 0.0
4.757705393330306 0.6277793253200102 0.0
3.245404476813698 0.3720431195654205 0.0
3.262406961538709 0.609092082228193 0.0
4.738552632749474 0.3854106153034425 0.0
4.980576921401999 0.1828043249223437 0.0
3.019423077460087 0.8171956749482756 0.0
4.975386875116307 0.8288560892267683 0.0
3.024613123995747 0.1711439108946455 0.0
7.537862127958827 0.7914398748884439 0.0
0.46213787149577 0.7914398749623154 0.0
4.150965283491015 0.1232311208167031 0.0
3.849034718225983 0.8767688792466098 0.0
0.6330166515036239 0.5212993800799176 0.0
7.366983347335347 0.5212993798709434 0.0
5.001451172914062 0.4591396125040952 0.0
2.998548825585332 0.5408603877155073 0.0
5.250532135494552 0.1623854812497458 0.0
5.24999687257574 0.8404382486850067 0.0
2.749794930508214 0.8396380739052673 0.0
2.749676059914328 0.161585306286623 0.0
1.150631951549359 0.5017906253149568 0.0
6.85747267660715 0.5137706215776152 0.0
2.938770240933895 0.3859183074771494 0.0
5.061229757952985 0.6140816927005173 0.0
5.521883200863776 0.8371838481144578 0.0
5.520780843451154 0.1567733764659754 0.0
2.479219155991939 0.1567733759623464 0.0
2.478116798894765 0.8371838481096507 0.0
2.208224060227917 0.1725929992863016 0.0
2.214655190115911 0.821187355218689 0.0
5.791775938918927 0.8274070011383262 0.0
5.785558009721889 0.1789659155514431 0.0
5.243140500145841 0.3651007420679131 0.0
5.247758683472709 0.6318228659349833 0.0
2.748336099792684 0.6332079670712092 0.0
2.766145970608876 0.3583112578457802 0.0
2.500794992947401 0.4517155340697119 0.0
5.499205006433885 0.4517155344186723 0.0
3.472119223331378 0.69283875816516 0.0
4.527880773131323 0.6928387614752662 0.0
2.445947440949104 0.6396216022327238 0.0
5.554052558509333 0.6396216019605415 0.0
[...]
POINT_DATA 494

VECTORS Velocity float
0.0000000000000000 0.0000000000000000 0.0
0.8198992459873544 -0.1380569865361603 0.0
0.0000000000000000 0.0000000000000000 0.0
0.0000000000000000 0.0000000000000000 0.0
0.0000000000000000 0.0000000000000000 0.0
0.0000000000000000 0.0000000000000000 0.0
0.0000000000000000 0.0000000000000000 0.0
0.0000000000000000 0.0000000000000000 0.0
0.0000000000000000 0.0000000000000000 0.0
0.0000000000000000 0.0000000000000000 0.0
0.0000000000000000 0.0000000000000000 0.0
0.0000000000000000 0.0000000000000000 0.0
0.0000000000000000 0.0000000000000000 0.0
0.0000000000000000 0.0000000000000000 0.0
0.0000000000000000 0.0000000000000000 0.0
0.0000000000000000 0.0000000000000000 0.0
0.0000000000000000 0.0000000000000000 0.0
0.0000000000000000 0.0000000000000000 0.0
0.0000000000000000 0.0000000000000000 0.0
0.0000000000000000 0.0000000000000000 0.0
0.0000000000000000 0.0000000000000000 0.0
0.0000000000000000 0.0000000000000000 0.0
0.0000000000000000 0.0000000000000000 0.0
0.0000000000000000 0.0000000000000000 0.0
0.0000000000000000 0.0000000000000000 0.0
0.0000000000000000 0.0000000000000000 0.0
0.0000000000000000 0.0000000000000000 0.0
0.0000000000000000 0.0000000000000000 0.0
0.0000000000000000 0.0000000000000000 0.0
0.0000000000000000 0.0000000000000000 0.0
0.0000000000000000 0.0000000000000000 0.0
0.0000000000000000 0.0000000000000000 0.0
0.0000000000000000 0.0000000000000000 0.0
0.0000000000000000 0.0000000000000000 0.0
0.0000000000000000 0.0000000000000000 0.0
0.0000000000000000 0.0000000000000000 0.0
0.0000000000000000 0.0000000000000000 0.0
0.0000000000000000 0.0000000000000000 0.0
0.0000000000000000 0.0000000000000000 0.0
0.0000000000000000 0.0000000000000000 0.0
0.0000000000000000 0.0000000000000000 0.0
0.0000000000000000 0.0000000000000000 0.0
0.0000000000000000 0.0000000000000000 0.0
0.0000000000000000 0.0000000000000000 0.0
0.0000000000000000 0.0000000000000000 0.0
0.0000000000000000 0.0000000000000000 0.0
0.0000000000000000 0.0000000000000000 0.0
0.0000000000000000 0.0000000000000000 0.0
0.0000000000000000 0.0000000000000000 0.0
0.0000000000000000 0.0000000000000000 0.0
0.0000000000000000 0.0000000000000000 0.0
0.0000000000000000 0.0000000000000000 0.0
0.0000000000000000 0.0000000000000000 0.0
0.0000000000000000 0.0000000000000000 0.0
1.0770885192341266 0.5444174706738903 0.0
0.9956023720352541 0.1379341834570653 0.0
0.9602278319654174 -0.0877476433993626 0.0
1.0633875925098411 -0.4538972156670239 0.0
0.0000000000000000 0.0000000000000000 0.0
0.0000000000000000 0.0000000000000000 0.0
0.0000000000000000 0.0000000000000000 0.0
0.0000000000000000 0.0000000000000000 0.0
0.0000000000000000 0.0000000000000000 0.0
0.0000000000000000 0.0000000000000000 0.0
0.0000000000000000 0.0000000000000000 0.0
0.0000000000000000 0.0000000000000000 0.0
0.0000000000000000 0.0000000000000000 0.0
0.0000000000000000 0.0000000000000000 0.0
0.0000000000000000 0.0000000000000000 0.0
0.0000000000000000 0.0000000000000000 0.0
0.0000000000000000 0.0000000000000000 0.0
0.0000000000000000 0.0000000000000000 0.0
0.0000000000000000 0.0000000000000000 0.0
0.0000000000000000 0.0000000000000000 0.0
0.0000000000000000 0.0000000000000000 0.0
0.0000000000000000 0.0000000000000000 0.0
0.0000000000000000 0.0000000000000000 0.0
0.0000000000000000 0.0000000000000000 0.0
0.0000000000000000 0.0000000000000000 0.0
0.0000000000000000 0.0000000000000000 0.0
0.0000000000000000 0.0000000000000000 0.0
0.0000000000000000 0.0000000000000000 0.0
0.0000000000000000 0.0000000000000000 0.0
0.0000000000000000 0.0000000000000000 0.0
0.0000000000000000 0.0000000000000000 0.0
0.0000000000000000 0.0000000000000000 0.0
0.0000000000000000 0.0000000000000000 0.0
0.0000000000000000 0.0000000000000000 0.0
0.0000000000000000 0.0000000000000000 0.0
0.0000000000000000 0.0000000000000000 0.0
0.0000000000000000 0.0000000000000000 0.0
0.0000000000000000 0.0000000000000000 0.0
0.0000000000000000 0.0000000000000000 0.0
0.0000000000000000 0.0000000000000000 0.0
0.0000000000000000 0.0000000000000000 0.0
0.0000000000000000 0.0000000000000000 0.0
0.0000000000000000 0.0000000000000000 0.0
0.0000000000000000 0.0000000000000000 0.0
0.0000000000000000 0.0000000000000000 0.0
0.0000000000000000 0.0000000000000000 0.0
0.0000000000000000 0.0000000000000000 0.0
0.0000000000000000 0.0000000000000000 0.0
0.0000000000000000 0.0000000000000000 0.0
0.0000000000000000 0.0000000000000000 0.0
1.0000000000000000 0.0000000000000000 0.0
1.0000000000000000 0.0000000000000000 0.0
1.0000000000000000 0.0000000000000000 0.0
1.0000000000000000 0.0000000000000000 0.0
0.0000000000000000 0.0000000000000000 0.0
0.0000000000000000 0.0000000000000000 0.0
0.0000000000000000 0.0000000000000000 0.0
0.0000000000000000 0.0000000000000000 0.0
0.0000000000000000 0.0000000000000000 0.0
0.0000000000000000 0.0000000000000000 0.0
0.0000000000000000 0.0000000000000000 0.0
0.0000000000000000 0.0000000000000000 0.0
0.0000000000000000 0.0000000000000000 0.0
0.0000000000000000 0.0000000000000000 0.0
0.0000000000000000 0.0000000000000000 0.0
0.0000000000000000 0.0000000000000000 0.0
1.6043663078966590 -0.0144551495188199 0.0
1.6065906793014901 0.0126624362590506 0.0
1.6378230243344274 -0.0119282154791717 0.0
1.6349053038364565 -0.0168896644051936 0.0
1.3418421987156852 0.0846389897622470 0.0
1.3673003496925025 0.0642558558732681 0.0
1.4117022146318416 -0.1092772057386055 0.0
1.3876691803904890 -0.1333461924640827 0.0
1.6119297468673899 0.0003158907662707 0.0
1.6114140820961211 -0.0088952645373885 0.0
1.5577859703410144 0.0058766360568784 0.0
1.5569500960064255 -0.0008128341986453 0.0
1.5731975094973139 -0.0318147106623572 0.0
1.5732194064160907 0.0168324704239870 0.0
1.6563777822895223 0.0099318243378514 0.0
1.6529869818126899 -0.0172574770700578 0.0
1.3188246023138668 0.3220499716893577 0.0
1.3183426513590728 0.3152416280156715 0.0
1.3707045542760117 0.0236905702739606 0.0
1.3516854142218226 -0.2357081383519386 0.0
1.3706196317619703 0.0179818661949104 0.0
1.3511968219759070 -0.2406615539699030 0.0
1.5492240807249817 0.0141150388876043 0.0
1.5330189451200067 -0.0338940640213979 0.0
1.3407311965413451 0.0037735390512160 0.0
1.3434778552806286 0.0040123471749123 0.0
1.2626662424239299 0.0030016991088901 0.0
1.2558662534411691 0.0004475160975965 0.0
1.3045928285889736 -0.0067044857820816 0.0
1.2115156035075754 -0.0148113947752364 0.0
1.1813501865311411 0.0084362640131883 0.0
1.3272996712978142 0.0034948381606069 0.0
1.4606718735624828 0.1369726512744736 0.0
1.4610513222220440 0.1348078639815587 0.0
1.4387853791499556 -0.2775292804731458 0.0
1.4447271714166667 -0.2828856523114827 0.0
1.4428849251318419 0.3613638069122627 0.0
1.4382415405475117 0.3581717466389804 0.0
1.1802961092694559 -0.0288733409268211 0.0
1.3026638760333802 -0.0079534724022850 0.0
1.2940440049920221 -0.0177661251971870 0.0
1.1848095595354453 -0.0316962061130833 0.0
1.0761021522214358 -0.0674835946136677 0.0
1.0827758640401295 -0.0575055366347563 0.0
1.0930454460891634 0.0428999174619589 0.0
1.1038073777602666 0.0286386062941593 0.0
1.2559361362220258 0.0043931739313241 0.0
1.2398902826852136 -0.0205746192515795 0.0
1.2447549907509572 0.0197145314863146 0.0
1.2501066041646733 -0.0011922264076897 0.0
1.4406936338436100 -0.0315118893555163 0.0
1.3204275226716500 0.0526264845623626 0.0
1.4458479682215992 0.0342179500789402 0.0
1.3120477946054352 -0.0463730943627682 0.0
1.5780886168870030 -0.2301435162751650 0.0
1.5777893667986587 -0.2293958555994323 0.0
1.1555283416625177 -0.0547085380227025 0.0
1.1800083732015501 0.0588894839963421 0.0
1.1429894458190519 -0.0574632769566791 0.0
1.1884296747323255 0.0477465565050038 0.0
1.4286541135561253 0.0325761774364682 0.0
1.4397304963673032 -0.0300745303721384 0.0
1.2951421856268512 -0.1607772508624109 0.0
1.2810222267134617 0.1936286210927814 0.0
1.1906214547739100 0.0495846904384442 0.0
1.1382816683361403 -0.0053148047459209 0.0
1.1867578544016155 -0.0376038715579632 0.0
1.1537929212416154 0.0306750840265317 0.0
1.2894461821362284 0.0085777797898786 0.0
1.2968688218269859 -0.0147353073323039 0.0
1.1556297653882726 0.0378457915428556 0.0
1.2188913671098625 -0.0663948185723958 0.0
1.1576283674934242 0.0411202572822589 0.0
1.2166122116554168 -0.0648395342800086 0.0
1.1689833023438079 0.0696469164050508 0.0
1.1453767776178712 -0.0396483344326982 0.0
1.0986068049441040 -0.0578240266452659 0.0
1.2060546514923818 0.0510204864059342 0.0
1.1027999019851726 -0.0234371673828296 0.0
1.0962320002725683 0.0190117910976030 0.0
1.6150221853324793 0.0082868915341728 0.0
1.6175958831037147 -0.0002700448374729 0.0
1.4909956335388006 0.0312804523462560 0.0
1.5121373576533654 -0.0679884377998270 0.0
0.4717413655654234 -0.0143842897306950 0.0
0.4533035210280567 -0.0164189649094706 0.0
0.5696834427343970 0.1072221948699058 0.0
0.5893037088725389 0.1063176329849826 0.0
1.4648181168913326 0.4486077507314705 0.0
1.4601088812036960 0.4452156399837177 0.0
1.5449958350105280 -0.3613574988409612 0.0
1.5471236549566809 -0.3630850794518978 0.0
0.9918644517372749 0.0348814211464005 0.0
0.9926256900618711 0.0450878579647393 0.0
1.6129280154725305 0.0323285543181676 0.0
1.6049583042295914 -0.0437963514279356 0.0
1.1586022180778108 0.1959163285329497 0.0
1.1963231631392668 -0.2744824474267095 0.0
1.5345900598833819 -0.0544851511908299 0.0
1.5075384619053063 0.0098855893444968 0.0
0.7367434538484176 -0.0068300595575640 0.0
0.7585968140984662 0.0053798580881170 0.0
0.8918358887551985 -0.0168668195453409 0.0
0.9087699601933530 -0.0200022452759200 0.0
0.9241649233222183 0.0049397165218318 0.0
0.9094645271246480 0.0045894014996305 0.0
1.5786418304044352 -0.0264894524352154 0.0
1.5786656333803342 -0.0568290017810893 0.0
0.6638717099791688 -0.0834182525815256 0.0
0.6615159265686396 -0.0841500256695877 0.0
0.7114629935135346 0.0637469303185111 0.0
0.7094903449577841 0.0625198232798880 0.0
1.4963791136449676 0.0495954733248365 0.0
1.4969806054726236 0.0321240679647385 0.0
0.8989947262800879 -0.1258143608679555 0.0
0.8995424893623069 -0.1291343661353909 0.0
1.3578012795838099 0.0009339417863568 0.0
1.2764955028057130 0.0145278040920313 0.0
1.0039048732688367 -0.0948365093340028 0.0
1.0042498789310164 -0.0946492194468736 0.0
1.5181089292696690 -0.0267855908052923 0.0
1.5224838426198026 -0.0291220755317848 0.0
1.4880935408065112 0.0368658050358307 0.0
1.4908982812589671 0.0440324255779977 0.0
0.7494428816439267 -0.0085471001214896 0.0
0.7533906087914918 -0.0068323840544426 0.0
0.7038770499524015 0.0219467015376148 0.0
0.6930674079743023 0.0199390025552390 0.0
0.8169523874387057 0.0369345697361699 0.0
0.8406061820936881 -0.0645530715621407 0.0
0.7453940112467783 0.0911260077196271 0.0
0.7480648022424243 0.0881473342370270 0.0
1.5783303503615109 -0.0105811149555157 0.0
1.5883406158960272 0.0054499910355881 0.0
1.5942799800688385 -0.0079275306861102 0.0
1.5953397782865948 -0.0056574613101123 0.0
0.7018094191586519 -0.0034118470023522 0.0
0.7264016358933408 0.0265507685125860 0.0
0.7059737665252740 -0.0128741974260171 0.0
0.7052083795674498 0.0193578471143412 0.0
1.6270403090639110 -0.0025391513453290 0.0
1.6301396180264667 -0.0437390903527731 0.0
1.5217446906863872 -0.0089341567042297 0.0
1.5232460444093479 -0.0133537808241397 0.0
0.7146894783166017 -0.0106925149336670 0.0
0.6381022151290999 0.0177467211118796 0.0
0.6511212938579800 -0.0200622636614664 0.0
0.6958327231497641 0.0086810553868668 0.0
0.8046424528912768 0.0296986883018533 0.0
0.7785411716718119 -0.0224528065740425 0.0
0.8087663094196443 0.0208650167759590 0.0
0.7931185994625077 -0.0275352310705045 0.0
1.4136577517829572 -0.0105110406105637 0.0
1.4385758639365649 0.0016250455883409 0.0
1.4163343774597168 -0.0009826138348965 0.0
1.4392541585269156 0.0088588544370941 0.0
1.5795405875593549 0.0009411683173163 0.0
1.5675292307954924 -0.0109051373006666 0.0
1.3114268294787901 0.0066564180251093 0.0
1.3572949111920114 -0.0271270279509368 0.0
1.4083376639821006 0.0021846925205799 0.0
1.4166061313235541 -0.0140461545980603 0.0
0.7204811995798076 -0.0170434726008673 0.0
0.6703744321933186 0.0187708173225717 0.0
0.7225011223517109 -0.0182892772567346 0.0
0.6715855802347742 0.0204819092885766 0.0
0.5559552488936063 -0.1177983567302302 0.0
0.5603903574216370 -0.1124966031456030 0.0
1.2859070244603454 0.1194216480916141 0.0
1.2851243402871533 0.1170611505743019 0.0
1.4216852176652035 -0.0168294096936375 0.0
1.3839667494474768 -0.0412997086906153 0.0
1.3873506166056331 0.0221530607091821 0.0
1.4233638470904577 -0.0032227657609951 0.0
0.7985035500209878 -0.0654222867202597 0.0
0.7976895455361575 0.0751600949077505 0.0
1.1249744823650218 -0.1589911917697454 0.0
1.1259530881213906 -0.1560255501999500 0.0
1.1272509878807098 0.2259369701467240 0.0
1.1224806175614290 0.2266990215848740 0.0
0.8467141565432116 -0.0429244331434808 0.0
0.8062784700525307 0.0487871762771837 0.0
0.8426000520130364 -0.0381025614174562 0.0
0.8117989170402311 0.0557218625577889 0.0
1.5547581983489467 -0.0100675826583677 0.0
1.5553021632989958 -0.0202253767754126 0.0
0.6852394307700229 -0.0212059760440893 0.0
0.7025736290044766 0.0035312356994438 0.0
0.6459652450688323 0.0250376122626746 0.0
0.7321188031604116 0.0423744194513310 0.0
0.6601321294535589 0.0020157195367324 0.0
0.6652927202735883 -0.0025400090099507 0.0
1.4082221439517466 -0.2128995692632928 0.0
1.4057813108083628 -0.2034516652249165 0.0
1.2666447906135387 0.2647852053928903 0.0
1.2678682860215058 0.2476141891772096 0.0
0.4744375682103587 -0.0511746228302873 0.0
0.4833046386486060 -0.0504846000747222 0.0
0.4801739540715202 0.0525999903023512 0.0
0.4895388729233933 0.0509354403923769 0.0
1.4014739246065384 -0.0056913945512236 0.0
1.4039563903087184 -0.0032203337111650 0.0
1.4318640709335537 -0.1613627223266647 0.0
1.4482407243058364 -0.1603370158114420 0.0
1.4491143207505508 0.1795386926860896 0.0
1.4290298547096167 0.1752508270668452 0.0
0.8531906512441499 0.0395170850137234 0.0
0.7430559244888123 -0.1088346392152337 0.0
0.8381876242696290 0.0515239736790087 0.0
0.7625401560872730 -0.0920627914465330 0.0
1.3979168876868009 -0.0449153459976054 0.0
1.3691973561847477 0.0515465610274519 0.0
1.3931773684290119 -0.0366917327371861 0.0
1.3722265956660336 0.0608331979437224 0.0
1.5104361276250329 0.0021433364320716 0.0
1.5090223911849860 -0.0312517952027298 0.0
0.6468420660163851 0.0023032256203845 0.0
0.6492123805406207 0.0042660354293027 0.0
1.3903233919308122 0.0805718999509026 0.0
1.4036093875114208 0.0528333596717594 0.0
1.5196528848045572 -0.0423341918473049 0.0
1.4950439481586637 0.0462013401815434 0.0
0.6977249651576209 0.0931731485414257 0.0
0.6846597961837086 0.1010622555574250 0.0
1.4633178138938225 -0.0289415886080764 0.0
1.4140737083467905 0.0354220613619618 0.0
1.4131008475761297 -0.0492048136711179 0.0
1.4632587456428749 0.0044718023959712 0.0
1.6340374607882717 0.0203979182418891 0.0
1.6473545092940536 -0.0275985594747946 0.0
0.5027021610233712 0.0000150944245687 0.0
0.5006649984740131 0.0019855207369424 0.0
1.5293369469250888 -0.0328577838892765 0.0
1.5259985185958289 0.0322788825263134 0.0
0.9373862142263774 0.2269687225738050 0.0
0.9059652066592768 -0.2232108740271578 0.0
1.5201391838602987 -0.0161715953503833 0.0
1.5161858760629419 -0.0063651582754225 0.0
1.3080011588955900 0.0037813062821143 0.0
1.3533397329553660 -0.0283127931547746 0.0
1.3232751043466706 -0.0190113626543849 0.0
1.3283132495091339 -0.0168967276369609 0.0
1.2053009571502771 -0.1210005640106892 0.0
1.2053596789379482 -0.1209271800242067 0.0
1.4989017264251874 -0.0150862526304105 0.0
1.4483792569809668 -0.0057228218569336 0.0
1.4527108182732398 -0.0305705159162155 0.0
1.4407555186298258 0.0319088680240954 0.0
1.5063049210823494 -0.0214100671712779 0.0
1.4539363555210665 0.0007613121103345 0.0
0.4284616417166994 0.0469621185842188 0.0
0.4311584547027879 0.0439349095005304 0.0
0.4242026896223020 -0.0308853801433275 0.0
0.4170384397339877 -0.0339400000667942 0.0
1.4352562905835318 -0.3330493386723913 0.0
1.4364724557857800 -0.3364451966555322 0.0
0.3968167676559916 0.0067357618230607 0.0
0.4060250204518850 -0.0109669166636306 0.0
1.5112932693883927 0.3295630354343668 0.0
1.5126757071820685 0.3240115986637777 0.0
0.5929687400026933 0.0992491475190515 0.0
0.5937692192095787 0.0980952727132376 0.0
1.5182411526771109 0.0239493808801249 0.0
1.5220693775984717 -0.0231893341393732 0.0
1.3284698548042579 -0.0151695775269653 0.0
1.3430384680040133 0.0130157982879208 0.0
1.4613096336125020 -0.3828299065551443 0.0
1.4568222838136098 -0.3778806923706032 0.0
1.3990408620870161 0.4893048138206390 0.0
1.4087666575593276 0.4869949970119437 0.0
1.5919947478855965 0.0111811150723850 0.0
1.5889720366955336 0.0132045629430948 0.0
0.4854910737624994 0.0540986353137854 0.0
0.4637358823000658 -0.0607549789372406 0.0
0.4780899585151447 0.0583287714752906 0.0
0.4741883229461896 -0.0568979504443690 0.0
0.3820658749140546 0.0283893478475979 0.0
0.4038702957917111 0.0285063083655898 0.0
0.4160305889032822 -0.0153896157276152 0.0
0.4388873897372875 -0.0166376119461368 0.0
1.2536719399152916 -0.2065753489414298 0.0
1.2715388301856796 -0.2087862804848341 0.0
1.2799637348370347 0.2835644723789704 0.0
1.2631300684521185 0.2816644622340426 0.0
1.2074073075452387 -0.2716744708460439 0.0
1.1809253644025468 0.2659665631921325 0.0
1.4519702778877044 0.0019575691133819 0.0
1.4590422000344829 0.0165807597356852 0.0
0.5093746251067094 -0.0093693095627449 0.0
0.4834569271680101 -0.0005579863310380 0.0
0.5206165506577467 0.0144924354911627 0.0
0.4979374912678917 0.0044939454603953 0.0
1.4873472069909104 -0.0228858365439481 0.0
1.4747889699350571 0.0048516390068384 0.0
1.3353323390846166 -0.0266577395008633 0.0
1.3355705818119734 -0.0235588887115626 0.0
0.8718961795131616 0.2643858416048039 0.0
0.9351805101481404 -0.2433838569719394 0.0
1.0387323355859259 0.0729025957996872 0.0
1.0463506216759453 0.0789702888078608 0.0
1.0554528161764534 -0.0956746623784726 0.0
1.0574265610040328 -0.0984607824446134 0.0
0.6354464754414594 -0.1341598942256283 0.0
0.6495894274530440 0.1423328453019385 0.0
0.2846059573891405 -0.0239202556085696 0.0
0.2879923028012102 -0.0233380241937199 0.0
0.2942904199213820 -0.0108796451402137 0.0
0.2927586200933570 -0.0109010947141453 0.0
0.3558198212306876 -0.0115949252418384 0.0
0.3554208881921186 0.0117606435068814 0.0
1.2240342484033810 0.3286230008113830 0.0
1.1734816617573220 -0.2645068383012411 0.0
0.5059784898250353 -0.0602673757404226 0.0
0.4941324061736135 0.0720485997868661 0.0
0.5056614018794103 -0.0594935695322961 0.0
0.4949294879587862 0.0739002987826511 0.0
1.4849191275171414 0.0479115475561015 0.0
1.4961128232154262 -0.0609243460242568 0.0
0.4519874723286276 0.0758250708877016 0.0
0.5224915030305595 -0.1242507513401656 0.0
0.9606303567794913 0.0640092561165517 0.0
0.9570029964463088 0.0622926032736277 0.0
0.9854724951391194 -0.0609831398829444 0.0
0.9862399116963358 -0.0612232375794316 0.0
0.8779188380519869 0.0307242433289436 0.0
0.8784635627706088 0.0397180372408407 0.0
0.5327055451768475 0.0441265629584120 0.0
0.5069398171349591 -0.0573398546973558 0.0
0.5299935054213112 0.0425806198899564 0.0
0.5054466956442133 -0.0576590216357803 0.0
1.5447909905977790 -0.0062263043520524 0.0
1.5404317346950955 -0.0034129629918061 0.0
0.4239696110866844 -0.0720829256344601 0.0
0.4745414263554810 0.0498635135230469 0.0
0.4586183908739965 0.0611597616921157 0.0
0.4445022218297373 -0.0607832877707415 0.0
1.0067949674441723 0.0412426265676843 0.0
1.0437520653406889 0.0427795738278184 0.0
1.0750041219442314 -0.0563214948420379 0.0
1.0485009156791409 -0.0604484983552055 0.0
1.3117221922885058 0.0212554474045904 0.0
1.3099106361603932 0.0280563596167837 0.0
1.3542836410625254 -0.0674946507502790 0.0
1.3691601427553539 -0.0392309195811487 0.0
1.0545844509119717 -0.1254723529187534 0.0
1.0489131393476949 -0.1326190964340309 0.0
0.5283435038182708 -0.0013590036734341 0.0
0.5302275850757241 0.0081086089995749 0.0
0.5363671892798212 0.0041308414813612 0.0
0.5197786452682681 -0.0061806241894002 0.0