# vtk DataFile Version 3.0
LucasCarvalhoTCC Results
ASCII

DATASET POLYDATA
FIELD FieldData 1
TIME 1 1 double
0.6000000000000001

POINTS 380 float
0.0 2.0 0.0
2.0 2.0 0.0
3.0 2.0 0.0
3.0 1.0 0.0
5.0 1.0 0.0
5.0 0.0 0.0
3.0 0.0 0.0
2.0 0.0 0.0
2.0 1.0 0.0
0.0 1.0 0.0
0.2643114543905713 2.0 0.0
0.5169795502969444 2.0 0.0
0.7585171880292413 2.0 0.0
0.9894145836600268 2.0 0.0
1.210140497826619 2.0 0.0
1.421143008568911 2.0 0.0
1.622850459538253 2.0 0.0
1.815672303789548 2.0 0.0
2.188552664328277 2.0 0.0
2.359329284173903 2.0 0.0
2.514005696104645 2.0 0.0
2.654099788331341 2.0 0.0
2.780986322989182 2.0 0.0
2.895910470953052 2.0 0.0
3.0 1.9 0.0
3.0 1.8 0.0
3.0 1.7 0.0
3.0 1.6 0.0
3.0 1.5 0.0
3.0 1.4 0.0
3.0 1.3 0.0
3.0 1.2 0.0
3.0 1.1 0.0
3.105031513416626 1.0 0.0
3.221094637894669 1.0 0.0
3.349348047908936 1.0 0.0
3.491072094154001 1.0 0.0
3.647681638607018 1.0 0.0
3.820740106959136 1.0 0.0
4.011975186625977 1.0 0.0
4.223295996958671 1.0 0.0
4.456812096249916 1.0 0.0
4.714854728122151 1.0 0.0
5.0 0.7500000000000003 0.0
5.0 0.5000000000000012 0.0
5.0 0.2500000000000011 0.0
4.735688545609428 0.0 0.0
4.483020449703056 0.0 0.0
4.241482811970759 0.0 0.0
4.010585416339973 0.0 0.0
3.789859502173381 0.0 0.0
3.578856991431089 0.0 0.0
3.377149540461747 0.0 0.0
3.184327696210452 0.0 0.0
2.811447335671723 0.0 0.0
2.640670715826097 0.0 0.0
2.485994303895355 0.0 0.0
2.345900211668659 0.0 0.0
2.219013677010818 0.0 0.0
2.104089529046948 0.0 0.0
2.0 0.1 0.0
2.0 0.2 0.0
2.0 0.3 0.0
2.0 0.4 0.0
2.0 0.5 0.0
2.0 0.6 0.0
2.0 0.7 0.0
2.0 0.8 0.0
2.0 0.9 0.0
1.894968486583374 1.0 0.0
1.77890536210533 1.0 0.0
1.650651952091063 1.0 0.0
1.508927905845999 1.0 0.0
1.352318361392982 1.0 0.0
1.179259893040864 1.0 0.0
0.9880248133740233 1.0 0.0
0.7767040030413299 1.0 0.0
0.5431879037500846 1.0 0.0
0.2851452718778493 1.0 0.0
0.0 1.25 0.0
0.0 1.499999999999999 0.0
0.0 1.749999999999999 0.0
2.426045913985508 1.348290599604586 0.0
2.562221387987337 0.6558377602558874 0.0
1.966703786708101 1.492474555319359 0.0
3.033486484223225 0.4973568340887861 0.0
2.371610747520728 0.97814425147097 0.0
2.648098402859118 1.648016516253387 0.0
2.351901597140882 0.3519834837466129 0.0
2.694321138879857 1.061432730999581 0.0
1.441644339445862 1.496646809257773 0.0
3.554831642064292 0.501744031268764 0.0
2.720742750697982 1.350625068836981 0.0
2.282037541072919 0.639419348257894 0.0
2.813390610951134 0.7911761792959446 0.0
2.310700631729327 1.679155452525512 0.0
2.688751528716965 0.3206838402855661 0.0
2.211165393176843 1.213708510063781 0.0
0.9449004170027906 1.496357611130017 0.0
4.05509958299721 0.5036423888699835 0.0
3.025501657200047 0.7528388163714679 0.0
1.714778657098197 1.300039655550584 0.0
1.958264922640818 1.245975101752485 0.0
2.206386339371814 0.8500000000000001 0.0
3.336706349465057 0.704398544338507 0.0
4.529565928894533 0.555233644424822 0.0
0.4704340711054673 1.444766355575178 0.0
2.186983355180128 1.461437746541105 0.0
2.553715879020142 0.8859594914241276 0.0
2.782212276375736 0.5474565156445963 0.0
2.500206140967324 1.148517546040804 0.0
2.803373162317882 1.783880361314082 0.0
2.196626837682118 0.2161196386859174 0.0
1.735623536927746 1.664129737658362 0.0
3.268802735993943 0.3358439745752063 0.0
2.799454045372581 1.51553500056848 0.0
2.18762015375897 0.4992029885790829 0.0
2.813478812948685 1.18678600527921 0.0
2.400994471757771 0.7612313552289275 0.0
2.405444563947088 0.5311203927463914 0.0
2.583195945356847 1.473216966241769 0.0
3.734210872783077 0.7260959952797862 0.0
1.256500988572085 1.265010492624376 0.0
2.938353069321001 0.2909212553641365 0.0
2.061245308362322 1.709221243241415 0.0
2.182240881432738 1.001025052084926 0.0
2.830214026212788 0.9796244234047695 0.0
2.49023894829247 1.787687811117195 0.0
2.50976105170753 0.2123121888828049 0.0
1.194806886820808 1.686899295332255 0.0
3.805193113179192 0.3131007046677451 0.0
2.655039231860651 1.208917360245127 0.0
1.493530449555064 1.231198576616718 0.0
2.345622594939228 1.152685186835846 0.0
2.41380980106708 1.521513100394759 0.0
2.58979513084283 0.4863225267637531 0.0
2.135472648094309 0.7246460081196311 0.0
2.912574128751924 0.660128736186259 0.0
2.866043013605144 1.353074765380587 0.0
0.6928324624395237 1.69170809873467 0.0
4.307167537560476 0.3082919012653306 0.0
2.071506740582853 1.128535871978767 0.0
0.6831902494895832 1.302725441792086 0.0
4.316809750510417 0.6972745582079137 0.0
2.85534466702333 1.667491236848871 0.0
2.141886244104996 0.336139391754002 0.0
1.447743165823209 1.773242752731258 0.0
3.554386585610856 0.224002072703283 0.0
2.96485662756902 0.8593908564801968 0.0
3.240425509636175 0.8099760775594669 0.0
2.088410584923666 1.339747073830609 0.0
3.277530767974837 0.4939020807639749 0.0
3.534313505233912 0.7935179117986669 0.0
2.546683861402325 1.011736398479819 0.0
2.664793655038503 0.758149595673951 0.0
2.7009922066801 0.9086021996324817 0.0
1.844652141496971 1.153158997353228 0.0
2.575910747861113 1.316876286520138 0.0
3.994328863599566 0.7454319923658932 0.0
1.005671136400434 1.254568007634107 0.0
1.722192091537185 1.482888323667831 0.0
2.644751416415203 1.850904811198953 0.0
2.355248583584797 0.1490951888010467 0.0
2.31560379269905 1.25706851182614 0.0
2.129697972466254 0.5864366202645266 0.0
2.417220568140766 0.6397160301847872 0.0
2.867945749403976 1.069821281672812 0.0
3.182303046124178 0.6739667261124369 0.0
4.702774994215813 0.2953677284017739 0.0
0.2972250057841874 1.704632271598226 0.0
2.90043748182062 0.4316738443013928 0.0
2.486081387366873 0.3514585853722887 0.0
2.513918612633127 1.648541414627711 0.0
2.086778258621772 1.563111332603502 0.0
4.025359850459486 0.2638518716814435 0.0
0.9746401495405139 1.736148128318556 0.0
3.116389458098145 0.2933651166122753 0.0
1.885410353788165 1.707062521230272 0.0
2.327134732627959 1.833634230002939 0.0
2.672865267372041 0.1663657699970617 0.0
1.675899428547673 1.15999616666306 0.0
1.858973331615206 1.373382723203102 0.0
2.860266039499884 1.862282581689995 0.0
2.139733960500116 0.1377174183100045 0.0
1.257473476073173 1.479081588926576 0.0
3.731624273377778 0.5208146070195914 0.0
2.115038607594509 0.9238947313642476 0.0
0.2734661728051435 1.270630989444945 0.0
4.726533827194856 0.7293690105550548 0.0
2.699965708650878 1.465007479364728 0.0
2.298365077320068 0.5341069340550768 0.0
2.510583000486659 0.7602856732279889 0.0
3.370667741214912 0.8392397884376295 0.0
3.067541604254986 0.8806352314757129 0.0
2.90073732483139 1.443475210354718 0.0
2.264071206758208 0.9501943312745662 0.0
2.278663096491763 0.7489636980394857 0.0
1.952511813454414 1.110576661474517 0.0
2.744352083917141 0.687787375233183 0.0
1.566252941493004 1.383661493752942 0.0
2.437660520624072 0.8703573012735125 0.0
2.904826075218911 1.261819176983655 0.0
2.305967018083784 1.391390767447104 0.0
2.105729326736999 0.8145314366030645 0.0
2.428967188976762 1.236966721617647 0.0
3.060475488407204 0.1442825789852263 0.0
1.934979199332455 1.852811714602595 0.0
2.095475260770118 0.4348597444661615 0.0
2.914777085426361 1.759093454264707 0.0
2.084827330449114 0.2414252069642749 0.0
2.207128288422204 1.315477221019454 0.0
2.658751426439581 0.5773232450959589 0.0
2.612380011409894 1.114144853433198 0.0
2.897371573983894 1.569769587751228 0.0
0.5001010519014215 1.226918930408543 0.0
4.499898948098578 0.7730810695914568 0.0
2.753086810589338 1.690362801865437 0.0
2.246793053318422 0.3097947118702842 0.0
3.391580469276819 0.5673489147038103 0.0
3.035026488699165 0.6179797538177514 0.0
2.449819864663089 1.055109427275025 0.0
2.27653308928065 1.054384468582349 0.0
2.794675693196835 1.418106589018447 0.0
2.778866980525137 1.083577784614141 0.0
2.244522876020972 0.1116738824400324 0.0
2.755477123979027 1.888326117559968 0.0
2.323887028942199 0.8604475039748537 0.0
2.204900210979926 1.747483509451062 0.0
2.794853185869193 0.2526222191943996 0.0
2.320767315286541 1.530441598510029 0.0
1.550828143561484 1.606851581022188 0.0
2.796593663741882 1.288013595743853 0.0
3.436143660897262 0.3940652474171653 0.0
2.682379445750112 0.4493639922429763 0.0
3.242313228541417 0.154845696987206 0.0
1.75965289115187 1.844031320058407 0.0
1.3642341383496 1.159631408929946 0.0
1.980047380836635 1.36362624976796 0.0
2.070303834520089 1.451946835577872 0.0
2.55866460451515 1.229901920133861 0.0
4.26844523535139 0.499131154814159 0.0
0.7315547646486098 1.500868845185841 0.0
2.716116351489881 1.570657861970705 0.0
2.283245236086922 0.4299499540566049 0.0
4.50573905238033 0.204273435313806 0.0
0.4942609476196695 1.795726564686194 0.0
3.605070352001925 0.644396355247622 0.0
3.171946621948212 0.9019117497969773 0.0
3.40309695214227 0.1789624633199048 0.0
1.59690304785773 1.821037536680094 0.0
4.776800700354217 0.5074282293075529 0.0
0.2231992996457826 1.492571770692447 0.0
1.293020597407515 1.839015256431498 0.0
3.706979402592485 0.1609847435685022 0.0
1.398281395597716 1.351857389185529 0.0
2.880181082677912 0.1378504756446906 0.0
2.119200639021148 1.861833157788504 0.0
2.408646939494887 0.2452196658480275 0.0
2.591353060505113 1.754780334151973 0.0
1.146570081566377 1.160946826906423 0.0
3.853429918433624 0.8390531730935771 0.0
2.920846657438631 1.149071660619678 0.0
2.101132283911678 1.226382957654413 0.0
2.903672483971366 0.7774662795474147 0.0
2.516386521935266 0.571665255016536 0.0
2.475412447847437 1.444413760085193 0.0
2.903041575637174 0.5510905120278109 0.0
3.666476299189054 0.8553176740217776 0.0
1.558137053653031 1.119389262041809 0.0
3.867595456948903 0.1475874639835382 0.0
1.132404543051097 1.852412536016462 0.0
2.635017655944937 0.9730281566682446 0.0
2.436667490139274 1.901171080200935 0.0
2.563332509860726 0.09882891979906516 0.0
2.091598337090247 1.040423151014485 0.0
0.8316881289508771 1.172977685150089 0.0
4.168311871049123 0.827022314849911 0.0
3.648565743761548 0.3681286963687066 0.0
1.355037313653319 1.636865536133179 0.0
2.58412781071005 1.576586299624529 0.0
2.41587218928995 0.4234137003754711 0.0
2.083716468691946 0.6634832154935376 0.0
1.843942294678346 1.256771801786488 0.0
[...]
POINT_DATA 380

VECTORS Velocity float
0.0000000000000000 0.0000000000000000 0.0
0.0000000000000000 0.0000000000000000 0.0
0.0000000000000000 0.0000000000000000 0.0
0.0000000000000000 0.0000000000000000 0.0
0.0000000000000000 0.0000000000000000 0.0
0.9178957677850416 -0.1285139916699092 0.0
0.0000000000000000 0.0000000000000000 0.0
0.0000000000000000 0.0000000000000000 0.0
0.0000000000000000 0.0000000000000000 0.0
0.0000000000000000 0.0000000000000000 0.0
0.0000000000000000 0.0000000000000000 0.0
0.0000000000000000 0.0000000000000000 0.0
0.0000000000000000 0.0000000000000000 0.0
0.0000000000000000 0.0000000000000000 0.0
0.0000000000000000 0.0000000000000000 0.0
0.0000000000000000 0.0000000000000000 0.0
0.0000000000000000 0.0000000000000000 0.0
0.0000000000000000 0.0000000000000000 0.0
0.0000000000000000 0.0000000000000000 0.0
0.0000000000000000 0.0000000000000000 0.0
0.0000000000000000 0.0000000000000000 0.0
0.0000000000000000 0.0000000000000000 0.0
0.0000000000000000 0.0000000000000000 0.0
0.0000000000000000 0.0000000000000000 0.0
0.0000000000000000 0.0000000000000000 0.0
0.0000000000000000 0.0000000000000000 0.0
0.0000000000000000 0.0000000000000000 0.0
0.0000000000000000 0.0000000000000000 0.0
0.0000000000000000 0.0000000000000000 0.0
0.0000000000000000 0.0000000000000000 0.0
0.0000000000000000 0.0000000000000000 0.0
0.0000000000000000 0.0000000000000000 0.0
0.0000000000000000 0.0000000000000000 0.0
0.0000000000000000 0.0000000000000000 0.0
0.0000000000000000 0.0000000000000000 0.0
0.0000000000000000 0.0000000000000000 0.0
0.0000000000000000 0.0000000000000000 0.0
0.0000000000000000 0.0000000000000000 0.0
0.0000000000000000 0.0000000000000000 0.0
0.0000000000000000 0.0000000000000000 0.0
0.0000000000000000 0.0000000000000000 0.0
0.0000000000000000 0.0000000000000000 0.0
0.0000000000000000 0.0000000000000000 0.0
1.1562783455415628 0.3392976261705237 0.0
0.8041354931759134 0.0327960325143291 0.0
1.1299698507465452 -0.2969045484369734 0.0
0.0000000000000000 0.0000000000000000 0.0
0.0000000000000000 0.0000000000000000 0.0
0.0000000000000000 0.0000000000000000 0.0
0.0000000000000000 0.0000000000000000 0.0
0.0000000000000000 0.0000000000000000 0.0
0.0000000000000000 0.0000000000000000 0.0
0.0000000000000000 0.0000000000000000 0.0
0.0000000000000000 0.0000000000000000 0.0
0.0000000000000000 0.0000000000000000 0.0
0.0000000000000000 0.0000000000000000 0.0
0.0000000000000000 0.0000000000000000 0.0
0.0000000000000000 0.0000000000000000 0.0
0.0000000000000000 0.0000000000000000 0.0
0.0000000000000000 0.0000000000000000 0.0
0.0000000000000000 0.0000000000000000 0.0
0.0000000000000000 0.0000000000000000 0.0
0.0000000000000000 0.0000000000000000 0.0
0.0000000000000000 0.0000000000000000 0.0
0.0000000000000000 0.0000000000000000 0.0
0.0000000000000000 0.0000000000000000 0.0
0.0000000000000000 0.0000000000000000 0.0
0.0000000000000000 0.0000000000000000 0.0
0.0000000000000000 0.0000000000000000 0.0
0.0000000000000000 0.0000000000000000 0.0
0.0000000000000000 0.0000000000000000 0.0
0.0000000000000000 0.0000000000000000 0.0
0.0000000000000000 0.0000000000000000 0.0
0.0000000000000000 0.0000000000000000 0.0
0.0000000000000000 0.0000000000000000 0.0
0.0000000000000000 0.0000000000000000 0.0
0.0000000000000000 0.0000000000000000 0.0
0.0000000000000000 0.0000000000000000 0.0
0.0000000000000000 0.0000000000000000 0.0
1.0000000000000000 0.0000000000000000 0.0
1.0000000000000000 0.0000000000000000 0.0
1.0000000000000000 0.0000000000000000 0.0
0.7162058893283149 -0.5764101642644729 0.0
0.6553844424749871 -0.5921776609512034 0.0
1.2362103237816757 -0.2457454801567331 0.0
1.1834385872203299 -0.2598771750535646 0.0
0.5105358962289012 -0.9135757767816589 0.0
0.4484107270877096 -0.1712678405614745 0.0
0.4196772094138367 -0.1826761599758174 0.0
0.4772421983031007 -0.9617151140958948 0.0
1.4432084602012387 -0.0819214248387013 0.0
1.4506706859551020 -0.0872975804035932 0.0
0.2921798430713799 -0.5491308668769196 0.0
0.2846324557906001 -0.5531569274600803 0.0
0.9967318335583496 -0.9000541848684719 0.0
0.7933269502553211 -0.1656574552634520 0.0
0.7824926612986011 -0.1690044002354430 0.0
0.9958150206847165 -0.8082619844180229 0.0
1.5433525002963897 -0.0082038413029871 0.0
1.5406763800779910 0.0008244124078349 0.0
1.4659442982445534 -0.4272566357672575 0.0
1.4131825985436157 -0.1604789998050440 0.0
1.4618261369440282 -0.3913408326370993 0.0
0.1791818498323766 -1.0029191649926539 0.0
1.4368604926789712 -0.1234949725575322 0.0
1.5466107085622793 0.0142534886195401 0.0
1.5052484133798050 0.0309458381387031 0.0
1.0022398823959633 -0.4002712365631302 0.0
0.5790010820369988 -0.8204742019299108 0.0
0.9349189892374077 -0.3792609113573680 0.0
0.5644992963873744 -0.8125431827520038 0.0
0.2964883104631464 -0.0250839844105263 0.0
0.2640202640858494 -0.0368921671743155 0.0
1.1991411458136350 -0.0585437556163191 0.0
1.1898072054273148 -0.0606724467262553 0.0
0.2147555116314972 -0.3113557839745605 0.0
0.1729585845642829 -0.3013659995218460 0.0
0.0809439744489310 -0.8398388016270184 0.0
0.4421230475195583 -0.7084350173104278 0.0
0.4596659931978157 -0.4213036374016618 0.0
0.4973997184593222 -0.3948490759726237 0.0
1.3602213408107870 -0.0456887360331657 0.0
1.2881055979032754 -0.0983754886915590 0.0
0.9333924672861740 -0.1226303846835325 0.0
0.9543646229653676 -0.1109671240276998 0.0
0.5521099240560218 -1.2575354822197577 0.0
0.5679656075096927 -1.3194126961798442 0.0
0.5010422878431342 -0.0154904665380404 0.0
0.4840602524195561 -0.0217563613287593 0.0
1.2860972123092249 0.0327374193895190 0.0
1.2892408646028761 0.0339849816981510 0.0
0.3914099543674809 -0.7455461945089975 0.0
1.2735469919270175 -0.0324923673695006 0.0
0.7285552176534386 -0.8313223723925760 0.0
0.6848525258498583 -0.3541535815354876 0.0
0.6965517125063126 -0.3815700411167485 0.0
-0.0936489337114041 -0.5639595497354912 0.0
1.2387117336187972 -0.5419771089717753 0.0
0.0607307042264678 -0.4647328428361389 0.0
1.3376776136018504 0.0165640963159818 0.0
1.3396385636343444 0.0232733511454313 0.0
1.3206347415893673 -0.9799270021127334 0.0
1.3731076091085483 -0.0415011989670769 0.0
1.3706393395549974 -0.0514510447432110 0.0
0.2442380479918966 -0.0923933167364688 0.0
0.2131352528905626 -0.1064074722571812 0.0
0.8570696769734687 -0.0081596214457048 0.0
0.8624671579779485 -0.0138440404674272 0.0
1.4496616219656899 -0.7578038570454069 0.0
1.3296635185918819 -0.1469867428230126 0.0
1.1880270915860993 -0.5170733322348363 0.0
1.3615369210334565 -0.0863346355285951 0.0
1.2486485418757136 -0.0799239307853438 0.0
0.5500202693647789 -0.8583232774501507 0.0
0.7591609907445722 -0.7051193309397836 0.0
0.6728745811440499 -0.9677081546696891 0.0
1.3427421463833229 -0.1138915397688040 0.0
0.5011937415133026 -0.6029977675915470 0.0
1.0646249570868047 -0.0443496271394612 0.0
1.0687318331412701 -0.0411225565925556 0.0
1.3883531251923293 -0.0977305509378159 0.0
0.2442428824194879 -0.0388812669600065 0.0
0.2283878873547348 -0.0411321878262341 0.0
0.8313780991048024 -0.6928785071599738 0.0
0.0693209066340737 -0.2802788999835585 0.0
0.4555460501944804 -0.5421270536814977 0.0
0.1019022520601335 -1.0985922031161748 0.0
1.4204677296080621 -0.2348447410212583 0.0
1.2017610769439249 -0.2016856446781525 0.0
1.1937398726200801 -0.1880768945887576 0.0
1.0436954610467561 -0.2647340163078303 0.0
0.5597388585574965 -0.1875690145206935 0.0
0.5827909177286517 -0.1738862125912620 0.0
1.0904733068900245 -0.2622236876615122 0.0
1.0587630572448190 -0.0104979123672193 0.0
1.0544674873042594 -0.0128744841438600 0.0
1.0595544357755713 -0.0859723481468214 0.0
1.0746032165584927 -0.0830165746704082 0.0
0.4051783176944128 -0.0488386003976411 0.0
0.3983074016167387 -0.0498835410231745 0.0
0.9551201975093314 -0.0654499194757328 0.0
1.3440420889297036 -0.2135931345828276 0.0
0.2369119680089549 0.0348412508131708 0.0
0.2060516153870141 0.0248124409646000 0.0
1.4490768025287282 -0.0836992963269022 0.0
1.4644946634538427 -0.1007932011018254 0.0
-0.0060227431250605 -0.8247054531864700 0.0
1.1033506686884709 0.2140424632810397 0.0
1.1088746232948743 0.2121973979043947 0.0
0.3310711951049570 -0.3958293191222835 0.0
0.3062803149742272 -0.3906090143490803 0.0
0.5673511862556645 -0.7197302831923057 0.0
1.0022465827297173 -0.0753808195106258 0.0
1.0723972226862739 -0.2568332797255296 0.0
0.0873514221058307 -0.2252671430836691 0.0
0.4146904755701925 -1.0695593849765328 0.0
0.2345197745630883 -0.7471206189058083 0.0
1.0591766732123427 -0.1604383264304805 0.0
0.8963137392233888 -0.6284216712119521 0.0
1.4281488879256636 -0.0876281446842689 0.0
0.4974993209191633 -0.8141836133149127 0.0
-0.0638645973149878 -0.4330411409032930 0.0
0.8544440258618343 -0.5064660210124386 0.0
-0.0503260833795566 -0.5024772442076315 0.0
0.6534553120277187 -0.7311379636268527 0.0
0.5375661321136616 -0.0177836726742040 0.0
0.5366704475952719 -0.0138020430891384 0.0
0.1423739005576847 -0.1334148105480165 0.0
0.2271893946810898 -0.0024811127913747 0.0
0.1951385502405808 -0.0108048540536413 0.0
1.0315435913894999 -0.6451412082011189 0.0
0.7809366061794417 -0.4897301111026474 0.0
0.4966641828394185 -0.8387859421823350 0.0
0.1381494133269079 -0.1285619170493288 0.0
0.8892300606274766 0.1487518549881254 0.0
0.8692189028793789 0.1205556294888116 0.0
0.3540421972947312 -0.1281838115004350 0.0
0.3254110461019782 -0.1412184645421834 0.0
1.4396490416674916 -0.1035191251462818 0.0
1.3158982000312243 -0.3391991828917878 0.0
0.5675361295209516 -0.8672590690829295 0.0
0.6441836641756051 -1.0327398686684464 0.0
0.1981232851477473 -0.4063951457798948 0.0
0.3364374250802854 -1.0787713259399958 0.0
0.1610553558314347 -0.0287907825629177 0.0
0.1785191431489668 -0.0265730231452066 0.0
0.4039944416452864 -0.8881855876652235 0.0
0.8025253451164034 -0.1289830320680481 0.0
0.7888974417304877 -0.1326441403323040 0.0
0.8436556430517570 -0.3322374552459411 0.0
1.3185113983427439 -0.0338749782236574 0.0
0.1530924986975301 -0.6016598559241647 0.0
1.3008206748943303 -0.0350460769869631 0.0
0.8311651450630443 -0.3298304715729498 0.0
0.6133888217817743 -0.0255277934757146 0.0
0.6096141486224693 -0.0276500680876607 0.0
0.9313453044943291 -0.0375956263567723 0.0
1.2973126507495008 -0.3650116589802645 0.0
1.1675479235546984 -0.3623283634650449 0.0
0.4946609148190003 -0.7204875071432632 0.0
1.5193244989450498 -0.0351134409716813 0.0
1.5152020412388321 -0.0325144493897602 0.0
0.3442254291441325 -0.2432374945210246 0.0
0.3139762545247257 -0.2611021642639616 0.0
0.8003192744560618 -0.1243470570733495 0.0
0.8181220710847077 -0.1429908743916692 0.0
1.4369445967070877 -0.0927972244464445 0.0
0.7153535261797793 -0.1086269054286898 0.0
0.7330768870195228 -0.0718068263924609 0.0
0.7337017809160363 -0.0775968850464728 0.0
1.2486049155041199 0.0392948047179677 0.0
1.2044813005204660 0.0334361582506145 0.0
0.7011807748322720 0.0410491896177416 0.0
0.7088695235984128 0.0404337252012115 0.0
1.3903682332860650 -0.0778336487180654 0.0
0.4351169456977476 -0.0577207968982987 0.0
0.4378126176590310 -0.0555216148717275 0.0
0.4415148903700841 -0.1151317149082137 0.0
0.4635522602042476 -0.1088519653806309 0.0
0.7600578653110981 0.0538694116080224 0.0
0.7632674441043957 0.0899827118065019 0.0
-0.1624426039851887 -0.5347780966732000 0.0
1.2516708341924241 -0.7265523603236974 0.0
1.2572891225050056 -0.7909517675024000 0.0
0.5879384324432286 -0.4839846817929461 0.0
0.6362035149102011 -0.4234563181211328 0.0
1.1149503113372119 -0.3827357713512005 0.0
0.6711137267208895 0.0094449210592578 0.0
0.7135910601769694 -0.0498635154176407 0.0
0.5967314722408356 -0.1019340953494726 0.0
0.5950181161065961 -0.1006914411957310 0.0
0.5677395160799296 -0.9195091403170907 0.0
0.1905046128626909 -0.0285797460498771 0.0
0.1836547092930332 -0.0295662665456320 0.0
0.6756048645855485 -1.1246568953329863 0.0
0.7111612664738362 -0.0929841576227382 0.0
0.7094596792674703 -0.0979101311930256 0.0
1.3141800511649122 -0.0924759364917852 0.0
1.3131921554669121 -0.0896130754630253 0.0
0.5099716765380806 -0.2619742687079607 0.0
0.4720473075266099 -0.2732769389386774 0.0
-0.0765367140310568 -0.2704826151129548 0.0
1.3617150737578465 -0.2323059257034376 0.0
0.6945888995209540 -1.2357705271219821 0.0
0.1707144096886528 -0.4371279767398071 0.0
0.4137949273354711 -0.5180271310416925 0.0
1.0249024418813231 -1.1056028188415767 0.0
0.8040304250432343 -1.0742021765886116 0.0
1.4410068750168028 -0.0653673211477445 0.0
1.4459061171073888 -0.0877404405095789 0.0
0.5563271639779975 -1.0650583156354181 0.0
0.9632822670016333 -0.2225857861375256 0.0
0.9393630343876103 -0.2054148382809239 0.0
0.6841528242857761 -0.1353812017902212 0.0
0.6718924639462692 -0.1444499067301367 0.0
1.4457403646759370 -0.1020061705500969 0.0
0.8188992964036157 -0.8623377570247043 0.0
0.3405587160395427 -0.8716990666584518 0.0
1.1550391351980898 -0.1701582157985941 0.0
1.5084790772752341 -0.0589540777716309 0.0
1.5164722776759567 -0.0624941124728389 0.0
1.1768615519079364 -0.1537869802241701 0.0
0.2158538211777090 -0.0009024446688829 0.0
0.2268572437027639 0.0022673805432044 0.0
0.5479490926242269 0.0714264265442856 0.0
1.2516191380013153 -0.1279548770520145 0.0
1.3566998692614587 -0.0459318426774363 0.0
0.3943691333116350 -0.6428569901043333 0.0
0.2736723787778881 -0.1920862689798468 0.0
0.2397410152770854 -0.2006168647142278 0.0
0.3832981449622309 -0.0468533406229721 0.0
0.3554298796871030 -0.0562507038983097 0.0
0.3789018165461074 -0.5072210090858550 0.0
-0.1270713178897840 -0.2179376116921433 0.0
0.7316898655903192 -0.6365930567276551 0.0
0.5624100856729906 0.0310323471870484 0.0
0.5495250974364402 0.0179733803286572 0.0
1.4493443870350968 -0.0302112246313610 0.0
1.4460812958348075 -0.0377500234872161 0.0
0.8110352050139303 -0.9692757465339867 0.0
1.3089566820136957 -0.2139382990606481 0.0
0.5333284131250753 -0.0725670071331782 0.0
0.1956648282150297 -0.0479508761150015 0.0
0.1608193253251237 -0.0520959902287681 0.0
0.3585141080818378 -0.6340426067504191 0.0
0.0737852781774168 -0.1680275690524202 0.0
0.5957840041113880 -0.6387071945929560 0.0
1.2800358475188023 -0.1209174005662326 0.0
0.6079476812784108 -0.3138958687441606 0.0
0.5799307984362029 -0.3391096209392970 0.0
0.5390010148733169 -0.8547743270756600 0.0
0.7097050932302953 0.0791803639786345 0.0
0.7100176385977196 0.0809129159820065 0.0
0.6558028093194828 -0.8484690555995618 0.0
0.0750899071981118 -0.7613835737579194 0.0
0.1097233089952044 -0.5495225902999307 0.0
-0.0099204466323265 -0.1633333705811452 0.0
0.8507071544994571 0.0597463792737797 0.0
0.8196771055537463 0.0852429829912227 0.0
0.8388856992177192 -0.0530053068957289 0.0
0.8128774048449883 -0.0710635742956438 0.0
0.2761029414001635 -0.7295593238821072 0.0
0.9351044993127504 -0.2183427195119205 0.0
0.6465199599226041 -0.7296839251064369 0.0
1.1281962433090891 -0.6866456994570793 0.0
0.6888135163315188 0.0724823921803705 0.0
1.4470679435853870 -0.0182993734393105 0.0
1.4522714308315225 -0.0156952976914062 0.0
1.0833979699859024 -1.1831127032297870 0.0
0.6141862005030908 -0.8440108620769365 0.0
1.4478260733933510 -0.2464494390699138 0.0
0.6059192774507579 -0.9219093374882857 0.0
-0.2135452795014726 -0.7568821468349689 0.0
1.3224175102072371 -0.1736429002292221 0.0
0.3295335174224891 -1.1929882286893809 0.0
1.4007202736955908 -0.1498224378123570 0.0
0.4898696566989253 -0.0130555413842003 0.0
1.5239279805638486 -0.0519033291419494 0.0
1.5030631497294158 -0.0700647453343654 0.0
0.1182200796441977 0.0256307875865458 0.0
0.1409058975456487 0.0303595726237254 0.0
0.6002867475145042 0.0464393602622977 0.0
0.4933803426747015 -0.0914688151226733 0.0
0.0755001323706263 0.0061223698718391 0.0
0.0901257648081644 0.0093568796621859 0.0
0.5969377227677716 -0.0471121054759837 0.0
0.5512651045524853 -0.6334505312019575 0.0
0.5959620489250155 -0.0281621148021618 0.0
0.5940971621408858 -0.0228113381155415 0.0
0.7065752099486752 -0.2442967120483100 0.0
0.7359229531967115 -0.2257326567253927 0.0
0.5402504787139573 -0.5322052898089153 0.0
0.3887951483803631 -0.3240272112145209 0.0
0.4221646133201090 -0.3239391540363936 0.0
0.2182380341917947 0.0370625889053865 0.0
0.1850033846880974 0.0311473482268610 0.0
1.5671258898897962 -0.6066955460980334 0.0
1.0458176327699586 -0.5413430048476982 0.0
0.7453508123611481 -0.4546252040175063 0.0
1.0496999593885930 -0.6205244223831444 0.0
