# vtk DataFile Version 3.0
LucasCarvalhoTCC Results
ASCII

DATASET POLYDATA
FIELD FieldData 1
TIME 1 1 double
2.8000000000000003

POINTS 380 float
0.0 2.0 0.0
2.0 2.0 0.0
3.0 2.0 0.0
3.0 1.0 0.0
5.0 1.0 0.0
5.0 0.0 0.0
3.0 0.0 0.0
2.0 0.0 0.0
2.0 1.0 0.0
0.0 1.0 0.0
0.2643114543905713 2.0 0.0
0.5169795502969444 2.0 0.0
0.7585171880292413 2.0 0.0
0.9894145836600268 2.0 0.0
1.210140497826619 2.0 0.0
1.421143008568911 2.0 0.0
1.622850459538253 2.0 0.0
1.815672303789548 2.0 0.0
2.188552664328277 2.0 0.0
2.359329284173903 2.0 0.0
2.514005696104645 2.0 0.0
2.654099788331341 2.0 0.0
2.780986322989182 2.0 0.0
2.895910470953052 2.0 0.0
3.0 1.9 0.0
3.0 1.8 0.0
3.0 1.7 0.0
3.0 1.6 0.0
3.0 1.5 0.0
3.0 1.4 0.0
3.0 1.3 0.0
3.0 1.2 0.0
3.0 1.1 0.0
3.105031513416626 1.0 0.0
3.221094637894669 1.0 0.0
3.349348047908936 1.0 0.0
3.491072094154001 1.0 0.0
3.647681638607018 1.0 0.0
3.820740106959136 1.0 0.0
4.011975186625977 1.0 0.0
4.223295996958671 1.0 0.0
4.456812096249916 1.0 0.0
4.714854728122151 1.0 0.0
5.0 0.7500000000000003 0.0
5.0 0.5000000000000012 0.0
5.0 0.2500000000000011 0.0
4.735688545609428 0.0 0.0
4.483020449703056 0.0 0.0
4.241482811970759 0.0 0.0
4.010585416339973 0.0 0.0
3.789859502173381 0.0 0.0
3.578856991431089 0.0 0.0
3.377149540461747 0.0 0.0
3.184327696210452 0.0 0.0
2.811447335671723 0.0 0.0
2.640670715826097 0.0 0.0
2.485994303895355 0.0 0.0
2.345900211668659 0.0 0.0
2.219013677010818 0.0 0.0
2.104089529046948 0.0 0.0
2.0 0.1 0.0
2.0 0.2 0.0
2.0 0.3 0.0
2.0 0.4 0.0
2.0 0.5 0.0
2.0 0.6 0.0
2.0 0.7 0.0
2.0 0.8 0.0
2.0 0.9 0.0
1.894968486583374 1.0 0.0
1.77890536210533 1.0 0.0
1.650651952091063 1.0 0.0
1.508927905845999 1.0 0.0
1.352318361392982 1.0 0.0
1.179259893040864 1.0 0.0
0.9880248133740233 1.0 0.0
0.7767040030413299 1.0 0.0
0.5431879037500846 1.0 0.0
0.2851452718778493 1.0 0.0
0.0 1.25 0.0
0.0 1.499999999999999 0.0
0.0 1.749999999999999 0.0
2.426045913985508 1.348290599604586 0.0
2.562221387987337 0.6558377602558874 0.0
1.966703786708101 1.492474555319359 0.0
3.033486484223225 0.4973568340887861 0.0
2.371610747520728 0.97814425147097 0.0
2.648098402859118 1.648016516253387 0.0
2.351901597140882 0.3519834837466129 0.0
2.694321138879857 1.061432730999581 0.0
1.441644339445862 1.496646809257773 0.0
3.554831642064292 0.501744031268764 0.0
2.720742750697982 1.350625068836981 0.0
2.282037541072919 0.639419348257894 0.0
2.813390610951134 0.7911761792959446 0.0
2.310700631729327 1.679155452525512 0.0
2.688751528716965 0.3206838402855661 0.0
2.211165393176843 1.213708510063781 0.0
0.9449004170027906 1.496357611130017 0.0
4.05509958299721 0.5036423888699835 0.0
3.025501657200047 0.7528388163714679 0.0
1.714778657098197 1.300039655550584 0.0
1.958264922640818 1.245975101752485 0.0
2.206386339371814 0.8500000000000001 0.0
3.336706349465057 0.704398544338507 0.0
4.529565928894533 0.555233644424822 0.0
0.4704340711054673 1.444766355575178 0.0
2.186983355180128 1.461437746541105 0.0
2.553715879020142 0.8859594914241276 0.0
2.782212276375736 0.5474565156445963 0.0
2.500206140967324 1.148517546040804 0.0
2.803373162317882 1.783880361314082 0.0
2.196626837682118 0.2161196386859174 0.0
1.735623536927746 1.664129737658362 0.0
3.268802735993943 0.3358439745752063 0.0
2.799454045372581 1.51553500056848 0.0
2.18762015375897 0.4992029885790829 0.0
2.813478812948685 1.18678600527921 0.0
2.400994471757771 0.7612313552289275 0.0
2.405444563947088 0.5311203927463914 0.0
2.583195945356847 1.473216966241769 0.0
3.734210872783077 0.7260959952797862 0.0
1.256500988572085 1.265010492624376 0.0
2.938353069321001 0.2909212553641365 0.0
2.061245308362322 1.709221243241415 0.0
2.182240881432738 1.001025052084926 0.0
2.830214026212788 0.9796244234047695 0.0
2.49023894829247 1.787687811117195 0.0
2.50976105170753 0.2123121888828049 0.0
1.194806886820808 1.686899295332255 0.0
3.805193113179192 0.3131007046677451 0.0
2.655039231860651 1.208917360245127 0.0
1.493530449555064 1.231198576616718 0.0
2.345622594939228 1.152685186835846 0.0
2.41380980106708 1.521513100394759 0.0
2.58979513084283 0.4863225267637531 0.0
2.135472648094309 0.7246460081196311 0.0
2.912574128751924 0.660128736186259 0.0
2.866043013605144 1.353074765380587 0.0
0.6928324624395237 1.69170809873467 0.0
4.307167537560476 0.3082919012653306 0.0
2.071506740582853 1.128535871978767 0.0
0.6831902494895832 1.302725441792086 0.0
4.316809750510417 0.6972745582079137 0.0
2.85534466702333 1.667491236848871 0.0
2.141886244104996 0.336139391754002 0.0
1.447743165823209 1.773242752731258 0.0
3.554386585610856 0.224002072703283 0.0
2.96485662756902 0.8593908564801968 0.0
3.240425509636175 0.8099760775594669 0.0
2.088410584923666 1.339747073830609 0.0
3.277530767974837 0.4939020807639749 0.0
3.534313505233912 0.7935179117986669 0.0
2.546683861402325 1.011736398479819 0.0
2.664793655038503 0.758149595673951 0.0
2.7009922066801 0.9086021996324817 0.0
1.844652141496971 1.153158997353228 0.0
2.575910747861113 1.316876286520138 0.0
3.994328863599566 0.7454319923658932 0.0
1.005671136400434 1.254568007634107 0.0
1.722192091537185 1.482888323667831 0.0
2.644751416415203 1.850904811198953 0.0
2.355248583584797 0.1490951888010467 0.0
2.31560379269905 1.25706851182614 0.0
2.129697972466254 0.5864366202645266 0.0
2.417220568140766 0.6397160301847872 0.0
2.867945749403976 1.069821281672812 0.0
3.182303046124178 0.6739667261124369 0.0
4.702774994215813 0.2953677284017739 0.0
0.2972250057841874 1.704632271598226 0.0
2.90043748182062 0.4316738443013928 0.0
2.486081387366873 0.3514585853722887 0.0
2.513918612633127 1.648541414627711 0.0
2.086778258621772 1.563111332603502 0.0
4.025359850459486 0.2638518716814435 0.0
0.9746401495405139 1.736148128318556 0.0
3.116389458098145 0.2933651166122753 0.0
1.885410353788165 1.707062521230272 0.0
2.327134732627959 1.833634230002939 0.0
2.672865267372041 0.1663657699970617 0.0
1.675899428547673 1.15999616666306 0.0
1.858973331615206 1.373382723203102 0.0
2.860266039499884 1.862282581689995 0.0
2.139733960500116 0.1377174183100045 0.0
1.257473476073173 1.479081588926576 0.0
3.731624273377778 0.5208146070195914 0.0
2.115038607594509 0.9238947313642476 0.0
0.2734661728051435 1.270630989444945 0.0
4.726533827194856 0.7293690105550548 0.0
2.699965708650878 1.465007479364728 0.0
2.298365077320068 0.5341069340550768 0.0
2.510583000486659 0.7602856732279889 0.0
3.370667741214912 0.8392397884376295 0.0
3.067541604254986 0.8806352314757129 0.0
2.90073732483139 1.443475210354718 0.0
2.264071206758208 0.9501943312745662 0.0
2.278663096491763 0.7489636980394857 0.0
1.952511813454414 1.110576661474517 0.0
2.744352083917141 0.687787375233183 0.0
1.566252941493004 1.383661493752942 0.0
2.437660520624072 0.8703573012735125 0.0
2.904826075218911 1.261819176983655 0.0
2.305967018083784 1.391390767447104 0.0
2.105729326736999 0.8145314366030645 0.0
2.428967188976762 1.236966721617647 0.0
3.060475488407204 0.1442825789852263 0.0
1.934979199332455 1.852811714602595 0.0
2.095475260770118 0.4348597444661615 0.0
2.914777085426361 1.759093454264707 0.0
2.084827330449114 0.2414252069642749 0.0
2.207128288422204 1.315477221019454 0.0
2.658751426439581 0.5773232450959589 0.0
2.612380011409894 1.114144853433198 0.0
2.897371573983894 1.569769587751228 0.0
0.5001010519014215 1.226918930408543 0.0
4.499898948098578 0.7730810695914568 0.0
2.753086810589338 1.690362801865437 0.0
2.246793053318422 0.3097947118702842 0.0
3.391580469276819 0.5673489147038103 0.0
3.035026488699165 0.6179797538177514 0.0
2.449819864663089 1.055109427275025 0.0
2.27653308928065 1.054384468582349 0.0
2.794675693196835 1.418106589018447 0.0
2.778866980525137 1.083577784614141 0.0
2.244522876020972 0.1116738824400324 0.0
2.755477123979027 1.888326117559968 0.0
2.323887028942199 0.8604475039748537 0.0
2.204900210979926 1.747483509451062 0.0
2.794853185869193 0.2526222191943996 0.0
2.320767315286541 1.530441598510029 0.0
1.550828143561484 1.606851581022188 0.0
2.796593663741882 1.288013595743853 0.0
3.436143660897262 0.3940652474171653 0.0
2.682379445750112 0.4493639922429763 0.0
3.242313228541417 0.154845696987206 0.0
1.75965289115187 1.844031320058407 0.0
1.3642341383496 1.159631408929946 0.0
1.980047380836635 1.36362624976796 0.0
2.070303834520089 1.451946835577872 0.0
2.55866460451515 1.229901920133861 0.0
4.26844523535139 0.499131154814159 0.0
0.7315547646486098 1.500868845185841 0.0
2.716116351489881 1.570657861970705 0.0
2.283245236086922 0.4299499540566049 0.0
4.50573905238033 0.204273435313806 0.0
0.4942609476196695 1.795726564686194 0.0
3.605070352001925 0.644396355247622 0.0
3.171946621948212 0.9019117497969773 0.0
3.40309695214227 0.1789624633199048 0.0
1.59690304785773 1.821037536680094 0.0
4.776800700354217 0.5074282293075529 0.0
0.2231992996457826 1.492571770692447 0.0
1.293020597407515 1.839015256431498 0.0
3.706979402592485 0.1609847435685022 0.0
1.398281395597716 1.351857389185529 0.0
2.880181082677912 0.1378504756446906 0.0
2.119200639021148 1.861833157788504 0.0
2.408646939494887 0.2452196658480275 0.0
2.591353060505113 1.754780334151973 0.0
1.146570081566377 1.160946826906423 0.0
3.853429918433624 0.8390531730935771 0.0
2.920846657438631 1.149071660619678 0.0
2.101132283911678 1.226382957654413 0.0
2.903672483971366 0.7774662795474147 0.0
2.516386521935266 0.571665255016536 0.0
2.475412447847437 1.444413760085193 0.0
2.903041575637174 0.5510905120278109 0.0
3.666476299189054 0.8553176740217776 0.0
1.558137053653031 1.119389262041809 0.0
3.867595456948903 0.1475874639835382 0.0
1.132404543051097 1.852412536016462 0.0
2.635017655944937 0.9730281566682446 0.0
2.436667490139274 1.901171080200935 0.0
2.563332509860726 0.09882891979906516 0.0
2.091598337090247 1.040423151014485 0.0
0.8316881289508771 1.172977685150089 0.0
4.168311871049123 0.827022314849911 0.0
3.648565743761548 0.3681286963687066 0.0
1.355037313653319 1.636865536133179 0.0
2.58412781071005 1.576586299624529 0.0
2.41587218928995 0.4234137003754711 0.0
2.083716468691946 0.6634832154935376 0.0
1.843942294678346 1.256771801786488 0.0
[...]
POINT_DATA 380

VECTORS Velocity float
0.0000000000000000 0.0000000000000000 0.0
0.0000000000000000 0.0000000000000000 0.0
0.0000000000000000 0.0000000000000000 0.0
0.0000000000000000 0.0000000000000000 0.0
0.0000000000000000 0.0000000000000000 0.0
0.9186870047791583 -0.1330396831845543 0.0
0.0000000000000000 0.0000000000000000 0.0
0.0000000000000000 0.0000000000000000 0.0
0.0000000000000000 0.0000000000000000 0.0
0.0000000000000000 0.0000000000000000 0.0
0.0000000000000000 0.0000000000000000 0.0
0.0000000000000000 0.0000000000000000 0.0
0.0000000000000000 0.0000000000000000 0.0
0.0000000000000000 0.0000000000000000 0.0
0.0000000000000000 0.0000000000000000 0.0
0.0000000000000000 0.0000000000000000 0.0
0.0000000000000000 0.0000000000000000 0.0
0.0000000000000000 0.0000000000000000 0.0
0.0000000000000000 0.0000000000000000 0.0
0.0000000000000000 0.0000000000000000 0.0
0.0000000000000000 0.0000000000000000 0.0
0.0000000000000000 0.0000000000000000 0.0
0.0000000000000000 0.0000000000000000 0.0
0.0000000000000000 0.0000000000000000 0.0
0.0000000000000000 0.0000000000000000 0.0
0.0000000000000000 0.0000000000000000 0.0
0.0000000000000000 0.0000000000000000 0.0
0.0000000000000000 0.0000000000000000 0.0
0.0000000000000000 0.0000000000000000 0.0
0.0000000000000000 0.0000000000000000 0.0
0.0000000000000000 0.0000000000000000 0.0
0.0000000000000000 0.0000000000000000 0.0
0.0000000000000000 0.0000000000000000 0.0
0.0000000000000000 0.0000000000000000 0.0
0.0000000000000000 0.0000000000000000 0.0
0.0000000000000000 0.0000000000000000 0.0
0.0000000000000000 0.0000000000000000 0.0
0.0000000000000000 0.0000000000000000 0.0
0.0000000000000000 0.0000000000000000 0.0
0.0000000000000000 0.0000000000000000 0.0
0.0000000000000000 0.0000000000000000 0.0
0.0000000000000000 0.0000000000000000 0.0
0.0000000000000000 0.0000000000000000 0.0
1.1552421947664318 0.3639705894354266 0.0
0.7957356897270095 0.0629834354180753 0.0
1.1395327438265219 -0.2967575211183907 0.0
0.0000000000000000 0.0000000000000000 0.0
0.0000000000000000 0.0000000000000000 0.0
0.0000000000000000 0.0000000000000000 0.0
0.0000000000000000 0.0000000000000000 0.0
0.0000000000000000 0.0000000000000000 0.0
0.0000000000000000 0.0000000000000000 0.0
0.0000000000000000 0.0000000000000000 0.0
0.0000000000000000 0.0000000000000000 0.0
0.0000000000000000 0.0000000000000000 0.0
0.0000000000000000 0.0000000000000000 0.0
0.0000000000000000 0.0000000000000000 0.0
0.0000000000000000 0.0000000000000000 0.0
0.0000000000000000 0.0000000000000000 0.0
0.0000000000000000 0.0000000000000000 0.0
0.0000000000000000 0.0000000000000000 0.0
0.0000000000000000 0.0000000000000000 0.0
0.0000000000000000 0.0000000000000000 0.0
0.0000000000000000 0.0000000000000000 0.0
0.0000000000000000 0.0000000000000000 0.0
0.0000000000000000 0.0000000000000000 0.0
0.0000000000000000 0.0000000000000000 0.0
0.0000000000000000 0.0000000000000000 0.0
0.0000000000000000 0.0000000000000000 0.0
0.0000000000000000 0.0000000000000000 0.0
0.0000000000000000 0.0000000000000000 0.0
0.0000000000000000 0.0000000000000000 0.0
0.0000000000000000 0.0000000000000000 0.0
0.0000000000000000 0.0000000000000000 0.0
0.0000000000000000 0.0000000000000000 0.0
0.0000000000000000 0.0000000000000000 0.0
0.0000000000000000 0.0000000000000000 0.0
0.0000000000000000 0.0000000000000000 0.0
0.0000000000000000 0.0000000000000000 0.0
1.0000000000000000 0.0000000000000000 0.0
1.0000000000000000 0.0000000000000000 0.0
1.0000000000000000 0.0000000000000000 0.0
0.8872035389681064 -0.7760096094432033 0.0
0.7800220180100985 -0.7902986862500445 0.0
1.4994817169263781 -0.2595820441730680 0.0
1.4415643074222069 -0.2565298919708315 0.0
0.5776469556982208 -1.1665318800015838 0.0
0.3026825811948922 -0.2042423816205374 0.0
0.2664597037813421 -0.2008305702691795 0.0
0.5620730276679393 -1.1978498966380113 0.0
1.5734509867745758 -0.0788502902223884 0.0
1.6097330041181228 -0.1167749362516092 0.0
0.2777414390699537 -0.7012441153551778 0.0
0.2571058867579825 -0.6387292763836940 0.0
1.1397054887932987 -1.0020262958985944 0.0
0.7103584955816240 -0.1896290409802796 0.0
0.6791606733024576 -0.1783295863150651 0.0
1.1429873299160285 -0.9084289123083347 0.0
1.6000740231043435 -0.0183636954129252 0.0
1.5975081272886054 -0.0080120761355359 0.0
1.4937823043671123 -0.3669682142893971 0.0
1.5006546993717476 -0.0697447350981967 0.0
1.4451728724862030 -0.3287343960766541 0.0
0.2495099957734984 -0.8796819240997765 0.0
1.5126402744143845 -0.0713154582238604 0.0
1.5837450243396294 0.0096150889684773 0.0
1.5335197968151826 0.0358578731337173 0.0
1.2568822102948769 -0.4866054708504605 0.0
0.6697936595528410 -1.1134614998853476 0.0
1.1564222625374718 -0.4371957774066402 0.0
0.6634427448859419 -1.1219883786782325 0.0
0.0781749938295150 -0.0695945547103005 0.0
0.0653954016518756 -0.0648477357902259 0.0
1.1877330271321576 -0.0826658750302694 0.0
1.1199930220750178 -0.0895614308481837 0.0
0.1260316268811137 -0.3524401607566103 0.0
0.0930737170106383 -0.2961439365094331 0.0
0.1670740281721972 -0.7917876555921766 0.0
0.4810201026972190 -0.9436562485625536 0.0
0.4688656011840667 -0.5437900378010746 0.0
0.5301660456406266 -0.5345616759712503 0.0
1.3906185797065209 -0.0111407109558971 0.0
1.3061819630606581 -0.0808216687192801 0.0
0.8162244723607929 -0.1254564671304940 0.0
0.8752835484237151 -0.1266164610477987 0.0
0.5643071870444450 -1.0381100318174039 0.0
0.6225100451134710 -1.1439641068553992 0.0
0.3217611227216705 -0.0300009955125435 0.0
0.3042181127657822 -0.0347957074622432 0.0
1.2786209194625298 0.0124482404750578 0.0
1.2793710650278576 0.0094227540876430 0.0
0.4558060404723496 -1.0147165024859446 0.0
1.2570623504677809 -0.0015262328299546 0.0
0.8587663426406059 -1.0627478332949902 0.0
0.7753664981466627 -0.4451397468925111 0.0
0.7923433370021713 -0.4833135392417816 0.0
0.0151524589136307 -0.4049744238653759 0.0
1.4857790762051051 -0.5590217223080413 0.0
0.0619033193793689 -0.4294489383997092 0.0
1.3445335021499567 0.0065646365509400 0.0
1.3447093597183575 0.0149843653542417 0.0
1.1227952924295148 -0.7796252820327900 0.0
1.3762657126334554 -0.0383557958768085 0.0
1.3738876351451710 -0.0564584772716549 0.0
0.0668077409448127 -0.1251736589894848 0.0
0.0576705626925278 -0.1125683519300161 0.0
0.7924852934795701 -0.0092694590746896 0.0
0.7782704439829287 -0.0257238966272580 0.0
1.2565290392814701 -0.5935457548283901 0.0
1.2445369721556758 -0.1051495911136931 0.0
1.4297387470112168 -0.5657043769389467 0.0
1.5316172165928095 -0.0916607193902460 0.0
1.2054723551859967 -0.0638016373000116 0.0
0.6404357025114416 -1.1746494017550682 0.0
0.9084275409287988 -0.9196978960418842 0.0
0.7876507483321096 -1.2089378703942144 0.0
1.0907610846178279 -0.0649742480127286 0.0
0.5779035464650240 -0.8468103576367269 0.0
1.0656863847772320 -0.0511144797090976 0.0
1.0672957085535337 -0.0518800583051274 0.0
1.5738761527664900 -0.0731784759618401 0.0
0.1088015073491827 -0.0397940777153216 0.0
0.0989623333003689 -0.0381045416025516 0.0
1.0162771271396560 -0.8849986352754392 0.0
0.0441411741601046 -0.2243813422350062 0.0
0.4845026614548050 -0.7193536205896708 0.0
0.2391502622308964 -0.8321413921145485 0.0
1.5587356601872935 -0.1712288335331654 0.0
1.2287850058581249 -0.2190482306650666 0.0
1.2101760603911627 -0.2004093916261226 0.0
1.1768190787676971 -0.2666209941802895 0.0
0.4402701749168026 -0.2168832329949326 0.0
0.4707915375270983 -0.2088088513038387 0.0
1.2538144132628857 -0.2912553678629957 0.0
1.0453498676844124 -0.0257824839489120 0.0
1.0435160847496208 -0.0266449317861455 0.0
0.9456385345211770 -0.1102182178537064 0.0
1.0100271245569628 -0.1150642005478230 0.0
0.2816987780324285 -0.0499426374869346 0.0
0.2736525379969589 -0.0472355221747989 0.0
0.8412387600429493 -0.0223076003190010 0.0
1.5739807234642103 -0.1597199685415520 0.0
0.0273765415608946 -0.0161613141641502 0.0
0.0211063557046495 -0.0154138584245253 0.0
1.5370561711725690 -0.0974801967533512 0.0
1.5692354175563328 -0.1259213570773257 0.0
0.1351082757918318 -0.5319718524941895 0.0
1.0960548896251785 0.2305473724452622 0.0
1.0939102467515966 0.2309388853724690 0.0
0.2895379970722688 -0.5158022382150073 0.0
0.2496805977089871 -0.4625469676140294 0.0
0.6514217595951588 -0.9824239011621191 0.0
0.9291602617947265 -0.0558748041054693 0.0
0.8877479805900653 -0.1854555974365020 0.0
0.0397114758283203 -0.2079879773019076 0.0
0.4690021632565016 -1.1263239724094853 0.0
0.2579144535517149 -0.8561866258166769 0.0
0.8007486627450109 -0.1293648233831388 0.0
1.1180131129409381 -0.7829517545134120 0.0
1.5597150067127492 -0.0547551140931743 0.0
0.5604428794655468 -1.0968326586860497 0.0
0.0235117582546459 -0.3488053843658450 0.0
1.0868683203386384 -0.6493113837050168 0.0
0.0620723300319941 -0.3259334764102835 0.0
0.7896678774873372 -0.9992966174996434 0.0
0.4131723209643297 -0.0207306640799705 0.0
0.4327143634345808 -0.0183153410296821 0.0
0.0504222121871943 -0.1111393734224533 0.0
0.0333920318589333 -0.0330180366239546 0.0
0.0264390312056985 -0.0296694770324077 0.0
1.2633654073941376 -0.7631780504389672 0.0
0.9548250785182175 -0.6154891028606879 0.0
0.5811867097870802 -1.1381929650425693 0.0
0.0362231871806390 -0.1331437759817183 0.0
0.8661055524055437 0.1645522944284263 0.0
0.8390042196035611 0.1312760017877530 0.0
0.1709551988794514 -0.1762585153086922 0.0
0.1487002871735293 -0.1643897631774291 0.0
1.6391649544877254 -0.1205010977955115 0.0
1.5889374213755945 -0.3279529209209447 0.0
0.6556101246932439 -1.1756044856872916 0.0
0.7060354154550079 -1.1434839675719297 0.0
0.1466656229081154 -0.4571567546618803 0.0
0.4171588235865262 -1.0981573779874614 0.0
0.0409963751417163 -0.0276841388985985 0.0
0.0472153450889122 -0.0295895081560846 0.0
0.4487068257758093 -1.0632554536464758 0.0
0.6562887647309600 -0.1325638623359822 0.0
0.6229956946732227 -0.1195978031362549 0.0
0.9804481652400359 -0.4165002315364156 0.0
1.3574654378862296 -0.0326261126900994 0.0
0.1572818743628058 -0.6341698161989442 0.0
1.3048399349532327 -0.0627542108684437 0.0
0.9373075196320289 -0.3914288589417824 0.0
0.5065487819289378 -0.0325982915580383 0.0
0.5280803380017028 -0.0357703960105367 0.0
0.8936428367337815 -0.0203019098572980 0.0
1.5295065151307587 -0.3536999251979967 0.0
1.4521124966919114 -0.4081868897461268 0.0
0.5778451554866768 -1.0071490939882961 0.0
1.6000617411327889 -0.0532720700234484 0.0
1.5899010422642270 -0.0447699388524562 0.0
0.2359708353605867 -0.3126834613687424 0.0
0.2044098450524796 -0.2945452176669967 0.0
0.7796672161636814 -0.1433353893284333 0.0
0.8007252048156456 -0.1598666766268264 0.0
1.5580021457658535 -0.0755557911643606 0.0
0.5640863423567010 -0.0597710064150776 0.0
0.6352875353487939 -0.0784351045405888 0.0
0.6588039902978332 -0.0810371863833601 0.0
1.2611411512495052 0.0572544243180657 0.0
1.2108901425165357 0.0465800634272550 0.0
0.6394658692192211 0.0334208123503291 0.0
0.6402961229092142 0.0311194550553287 0.0
1.4562848256400573 -0.0537903055685726 0.0
0.3180353348562271 -0.0546750244637000 0.0
0.3342004136122113 -0.0583101888544641 0.0
0.2528411000105371 -0.1163131850538151 0.0
0.2731901940482911 -0.1173784115015449 0.0
0.7319031278660618 0.0590448250502420 0.0
0.7335731106369157 0.1060167940904683 0.0
0.0322774248432396 -0.3824259468864336 0.0
1.3141056987221198 -0.7203111020235782 0.0
1.3408114249492453 -0.7533223373714146 0.0
0.6702638850279588 -0.6376831657815522 0.0
0.7590064122941551 -0.5696910203935549 0.0
1.4077846818228523 -0.4220840733315599 0.0
0.6066813890564892 0.0252062969821293 0.0
0.6310676777456451 -0.0181217014507969 0.0
0.5371550634359711 -0.1088699928200811 0.0
0.5397057347189053 -0.1066046681290327 0.0
0.6684084733054771 -1.2104210468192056 0.0
0.1021232636246449 -0.0245086976497277 0.0
0.0971554684512546 -0.0254657430836952 0.0
0.5820704618811784 -0.7586541564172666 0.0
0.6719483580216165 -0.0976619132496274 0.0
0.6706814892894791 -0.1055536872059378 0.0
1.3094252893057501 -0.1379515612330061 0.0
1.3147493826689600 -0.1136941203756733 0.0
0.4797196276119520 -0.3196825178331079 0.0
0.4217791497682825 -0.3213888911280642 0.0
-0.0058698588909379 -0.1794161176216680 0.0
1.3724474291309803 -0.1537294436292040 0.0
0.6147420409587477 -0.8310827054508091 0.0
0.1216861885491960 -0.4540425513269601 0.0
0.4357749480551852 -0.7151423100992889 0.0
0.9865677340543174 -0.9885071691975319 0.0
0.8917594943649010 -1.1582921218753564 0.0
1.4963412800481830 -0.0642243512935064 0.0
1.4919986073874405 -0.0955891301767021 0.0
0.6432744131561937 -1.2222250772439458 0.0
1.0374405616456870 -0.2649961757245833 0.0
0.9901710049992614 -0.2157661014229429 0.0
0.5236532643429667 -0.1590601809762961 0.0
0.5079953996535994 -0.1654802061384799 0.0
1.5570058079700870 -0.1076539636340656 0.0
0.9704879743644940 -1.0786120337896588 0.0
0.4104099389391507 -1.0680397047780752 0.0
1.2112675559002286 -0.1679530369229898 0.0
1.5664138115324464 -0.0909597406579000 0.0
1.5758527817545185 -0.0957671086645784 0.0
1.2789928622663789 -0.1684531861303098 0.0
0.1071538177579957 -0.0099158219733030 0.0
0.1149082628262025 -0.0081236301742943 0.0
0.4218793469850743 0.0672174666423382 0.0
1.3603078969000739 -0.1366929339955372 0.0
1.3232431527339978 0.0304842325014125 0.0
0.4334225964223507 -0.8847940876074822 0.0
0.1287471344657032 -0.2436504073372098 0.0
0.1055096480864966 -0.2132394620463533 0.0
0.1730702718905244 -0.0855046936883365 0.0
0.1546094415666908 -0.0822875945392697 0.0
0.3763918805728256 -0.6543214360070581 0.0
-0.0006806448386637 -0.1305492062925401 0.0
0.8885233209778595 -0.8375327624217075 0.0
0.5212413309126630 0.0366223460809762 0.0
0.5043428797718990 0.0190747602000255 0.0
1.4810323893372708 -0.0478038015068821 0.0
1.4811858060693106 -0.0594641333395739 0.0
0.9365197431873407 -1.0812508691653424 0.0
1.5913084538264028 -0.1718154748765558 0.0
0.4289152265665772 -0.0484440318759652 0.0
0.0301853857970769 -0.0453722159691289 0.0
0.0220773290204675 -0.0398695297953486 0.0
0.3692594714424659 -0.8149121050248311 0.0
0.0246720534875309 -0.1239344961941899 0.0
0.7099096959661029 -0.8940929036332469 0.0
1.4438161739353410 -0.1397470933425965 0.0
0.6477183265035856 -0.4039418244786658 0.0
0.6079624987584570 -0.4251541276520298 0.0
0.6204513111682844 -1.1584118195387392 0.0
0.6699592116381375 0.0782955219143008 0.0
0.6670572498088295 0.0809087012686458 0.0
0.7730995163842386 -1.1178169878047517 0.0
0.1238331935844494 -0.6408323680893093 0.0
0.1073966026890243 -0.5044137421361746 0.0
0.0048728008326208 -0.1256043425150117 0.0
0.8421613203297971 0.0649138576728845 0.0
0.8048727372295904 0.0968037297213937 0.0
0.8329835530116132 -0.0507784939884348 0.0
0.8044652510020512 -0.0671475255509950 0.0
0.3127087522006050 -0.8925298934115399 0.0
0.6559923809112839 -0.1559618337733809 0.0
0.7586794460267915 -0.9759482779965144 0.0
1.3477238169284784 -0.7786635950518007 0.0
0.5383690340777193 0.0837992116649505 0.0
1.4804812695171961 -0.0116251656092673 0.0
1.4841466098440834 -0.0077164899361627 0.0
1.0425267348537794 -1.0318622452582822 0.0
0.7221996576345348 -1.1376552101559603 0.0
1.3300815340928740 -0.1633052957247626 0.0
0.7004605714634520 -1.1804491283927714 0.0
0.0702900346063113 -0.4256635200783820 0.0
1.1878058146148640 -0.0616170167124818 0.0
0.3746827989662910 -0.9657293537513228 0.0
1.6463892398647069 -0.0938345314084469 0.0
0.4106957761795949 -0.0050970996410300 0.0
1.5810096588396232 -0.0861156187477245 0.0
1.5502898639806697 -0.0993358471087833 0.0
-0.0001717264549662 0.0000339265957325 0.0
0.0026279421228757 0.0005021776152673 0.0
0.5348079189837817 0.0422683315275055 0.0
0.3483246062283701 -0.0479094233050337 0.0
0.0006776993470366 -0.0059536802146860 0.0
0.0027146146893439 -0.0061256705932889 0.0
0.5557523009990759 -0.0344980384368775 0.0
0.6256092020066857 -0.8590658252968211 0.0
0.5590661472680358 -0.0341113018830365 0.0
0.5531055611812169 -0.0270531807097373 0.0
0.6984283501530778 -0.3023841923589451 0.0
0.7419622605499409 -0.2962407846850015 0.0
0.6253008426514111 -0.7404712923724982 0.0
0.3211996461448600 -0.3952345903035019 0.0
0.3651599972836581 -0.4262396373075232 0.0
0.0088267788769557 -0.0005899442419996 0.0
0.0041937617853520 -0.0011288690859590 0.0
1.3085330103601915 -0.4829104640124297 0.0
1.3262232314845459 -0.6481615935087205 0.0
0.9206752057218190 -0.5960740625351101 0.0
0.7665369138174342 -0.4488464858555906 0.0
