# vtk DataFile Version 3.0
LucasCarvalhoTCC Results
ASCII

DATASET POLYDATA
FIELD FieldData 1
TIME 1 1 double
3.1

POINTS 380 float
0.0 2.0 0.0
2.0 2.0 0.0
3.0 2.0 0.0
3.0 1.0 0.0
5.0 1.0 0.0
5.0 0.0 0.0
3.0 0.0 0.0
2.0 0.0 0.0
2.0 1.0 0.0
0.0 1.0 0.0
0.2643114543905713 2.0 0.0
0.5169795502969444 2.0 0.0
0.7585171880292413 2.0 0.0
0.9894145836600268 2.0 0.0
1.210140497826619 2.0 0.0
1.421143008568911 2.0 0.0
1.622850459538253 2.0 0.0
1.815672303789548 2.0 0.0
2.188552664328277 2.0 0.0
2.359329284173903 2.0 0.0
2.514005696104645 2.0 0.0
2.654099788331341 2.0 0.0
2.780986322989182 2.0 0.0
2.895910470953052 2.0 0.0
3.0 1.9 0.0
3.0 1.8 0.0
3.0 1.7 0.0
3.0 1.6 0.0
3.0 1.5 0.0
3.0 1.4 0.0
3.0 1.3 0.0
3.0 1.2 0.0
3.0 1.1 0.0
3.105031513416626 1.0 0.0
3.221094637894669 1.0 0.0
3.349348047908936 1.0 0.0
3.491072094154001 1.0 0.0
3.647681638607018 1.0 0.0
3.820740106959136 1.0 0.0
4.011975186625977 1.0 0.0
4.223295996958671 1.0 0.0
4.456812096249916 1.0 0.0
4.714854728122151 1.0 0.0
5.0 0.7500000000000003 0.0
5.0 0.5000000000000012 0.0
5.0 0.2500000000000011 0.0
4.735688545609428 0.0 0.0
4.483020449703056 0.0 0.0
4.241482811970759 0.0 0.0
4.010585416339973 0.0 0.0
3.789859502173381 0.0 0.0
3.578856991431089 0.0 0.0
3.377149540461747 0.0 0.0
3.184327696210452 0.0 0.0
2.811447335671723 0.0 0.0
2.640670715826097 0.0 0.0
2.485994303895355 0.0 0.0
2.345900211668659 0.0 0.0
2.219013677010818 0.0 0.0
2.104089529046948 0.0 0.0
2.0 0.1 0.0
2.0 0.2 0.0
2.0 0.3 0.0
2.0 0.4 0.0
2.0 0.5 0.0
2.0 0.6 0.0
2.0 0.7 0.0
2.0 0.8 0.0
2.0 0.9 0.0
1.894968486583374 1.0 0.0
1.77890536210533 1.0 0.0
1.650651952091063 1.0 0.0
1.508927905845999 1.0 0.0
1.352318361392982 1.0 0.0
1.179259893040864 1.0 0.0
0.9880248133740233 1.0 0.0
0.7767040030413299 1.0 0.0
0.5431879037500846 1.0 0.0
0.2851452718778493 1.0 0.0
0.0 1.25 0.0
0.0 1.499999999999999 0.0
0.0 1.749999999999999 0.0
2.426045913985508 1.348290599604586 0.0
2.562221387987337 0.6558377602558874 0.0
1.966703786708101 1.492474555319359 0.0
3.033486484223225 0.4973568340887861 0.0
2.371610747520728 0.97814425147097 0.0
2.648098402859118 1.648016516253387 0.0
2.351901597140882 0.3519834837466129 0.0
2.694321138879857 1.061432730999581 0.0
1.441644339445862 1.496646809257773 0.0
3.554831642064292 0.501744031268764 0.0
2.720742750697982 1.350625068836981 0.0
2.282037541072919 0.639419348257894 0.0
2.813390610951134 0.7911761792959446 0.0
2.310700631729327 1.679155452525512 0.0
2.688751528716965 0.3206838402855661 0.0
2.211165393176843 1.213708510063781 0.0
0.9449004170027906 1.496357611130017 0.0
4.05509958299721 0.5036423888699835 0.0
3.025501657200047 0.7528388163714679 0.0
1.714778657098197 1.300039655550584 0.0
1.958264922640818 1.245975101752485 0.0
2.206386339371814 0.8500000000000001 0.0
3.336706349465057 0.704398544338507 0.0
4.529565928894533 0.555233644424822 0.0
0.4704340711054673 1.444766355575178 0.0
2.186983355180128 1.461437746541105 0.0
2.553715879020142 0.8859594914241276 0.0
2.782212276375736 0.5474565156445963 0.0
2.500206140967324 1.148517546040804 0.0
2.803373162317882 1.783880361314082 0.0
2.196626837682118 0.2161196386859174 0.0
1.735623536927746 1.664129737658362 0.0
3.268802735993943 0.3358439745752063 0.0
2.799454045372581 1.51553500056848 0.0
2.18762015375897 0.4992029885790829 0.0
2.813478812948685 1.18678600527921 0.0
2.400994471757771 0.7612313552289275 0.0
2.405444563947088 0.5311203927463914 0.0
2.583195945356847 1.473216966241769 0.0
3.734210872783077 0.7260959952797862 0.0
1.256500988572085 1.265010492624376 0.0
2.938353069321001 0.2909212553641365 0.0
2.061245308362322 1.709221243241415 0.0
2.182240881432738 1.001025052084926 0.0
2.830214026212788 0.9796244234047695 0.0
2.49023894829247 1.787687811117195 0.0
2.50976105170753 0.2123121888828049 0.0
1.194806886820808 1.686899295332255 0.0
3.805193113179192 0.3131007046677451 0.0
2.655039231860651 1.208917360245127 0.0
1.493530449555064 1.231198576616718 0.0
2.345622594939228 1.152685186835846 0.0
2.41380980106708 1.521513100394759 0.0
2.58979513084283 0.4863225267637531 0.0
2.135472648094309 0.7246460081196311 0.0
2.912574128751924 0.660128736186259 0.0
2.866043013605144 1.353074765380587 0.0
0.6928324624395237 1.69170809873467 0.0
4.307167537560476 0.3082919012653306 0.0
2.071506740582853 1.128535871978767 0.0
0.6831902494895832 1.302725441792086 0.0
4.316809750510417 0.6972745582079137 0.0
2.85534466702333 1.667491236848871 0.0
2.141886244104996 0.336139391754002 0.0
1.447743165823209 1.773242752731258 0.0
3.554386585610856 0.224002072703283 0.0
2.96485662756902 0.8593908564801968 0.0
3.240425509636175 0.8099760775594669 0.0
2.088410584923666 1.339747073830609 0.0
3.277530767974837 0.4939020807639749 0.0
3.534313505233912 0.7935179117986669 0.0
2.546683861402325 1.011736398479819 0.0
2.664793655038503 0.758149595673951 0.0
2.7009922066801 0.9086021996324817 0.0
1.844652141496971 1.153158997353228 0.0
2.575910747861113 1.316876286520138 0.0
3.994328863599566 0.7454319923658932 0.0
1.005671136400434 1.254568007634107 0.0
1.722192091537185 1.482888323667831 0.0
2.644751416415203 1.850904811198953 0.0
2.355248583584797 0.1490951888010467 0.0
2.31560379269905 1.25706851182614 0.0
2.129697972466254 0.5864366202645266 0.0
2.417220568140766 0.6397160301847872 0.0
2.867945749403976 1.069821281672812 0.0
3.182303046124178 0.6739667261124369 0.0
4.702774994215813 0.2953677284017739 0.0
0.2972250057841874 1.704632271598226 0.0
2.90043748182062 0.4316738443013928 0.0
2.486081387366873 0.3514585853722887 0.0
2.513918612633127 1.648541414627711 0.0
2.086778258621772 1.563111332603502 0.0
4.025359850459486 0.2638518716814435 0.0
0.9746401495405139 1.736148128318556 0.0
3.116389458098145 0.2933651166122753 0.0
1.885410353788165 1.707062521230272 0.0
2.327134732627959 1.833634230002939 0.0
2.672865267372041 0.1663657699970617 0.0
1.675899428547673 1.15999616666306 0.0
1.858973331615206 1.373382723203102 0.0
2.860266039499884 1.862282581689995 0.0
2.139733960500116 0.1377174183100045 0.0
1.257473476073173 1.479081588926576 0.0
3.731624273377778 0.5208146070195914 0.0
2.115038607594509 0.9238947313642476 0.0
0.2734661728051435 1.270630989444945 0.0
4.726533827194856 0.7293690105550548 0.0
2.699965708650878 1.465007479364728 0.0
2.298365077320068 0.5341069340550768 0.0
2.510583000486659 0.7602856732279889 0.0
3.370667741214912 0.8392397884376295 0.0
3.067541604254986 0.8806352314757129 0.0
2.90073732483139 1.443475210354718 0.0
2.264071206758208 0.9501943312745662 0.0
2.278663096491763 0.7489636980394857 0.0
1.952511813454414 1.110576661474517 0.0
2.744352083917141 0.687787375233183 0.0
1.566252941493004 1.383661493752942 0.0
2.437660520624072 0.8703573012735125 0.0
2.904826075218911 1.261819176983655 0.0
2.305967018083784 1.391390767447104 0.0
2.105729326736999 0.8145314366030645 0.0
2.428967188976762 1.236966721617647 0.0
3.060475488407204 0.1442825789852263 0.0
1.934979199332455 1.852811714602595 0.0
2.095475260770118 0.4348597444661615 0.0
2.914777085426361 1.759093454264707 0.0
2.084827330449114 0.2414252069642749 0.0
2.207128288422204 1.315477221019454 0.0
2.658751426439581 0.5773232450959589 0.0
2.612380011409894 1.114144853433198 0.0
2.897371573983894 1.569769587751228 0.0
0.5001010519014215 1.226918930408543 0.0
4.499898948098578 0.7730810695914568 0.0
2.753086810589338 1.690362801865437 0.0
2.246793053318422 0.3097947118702842 0.0
3.391580469276819 0.5673489147038103 0.0
3.035026488699165 0.6179797538177514 0.0
2.449819864663089 1.055109427275025 0.0
2.27653308928065 1.054384468582349 0.0
2.794675693196835 1.418106589018447 0.0
2.778866980525137 1.083577784614141 0.0
2.244522876020972 0.1116738824400324 0.0
2.755477123979027 1.888326117559968 0.0
2.323887028942199 0.8604475039748537 0.0
2.204900210979926 1.747483509451062 0.0
2.794853185869193 0.2526222191943996 0.0
2.320767315286541 1.530441598510029 0.0
1.550828143561484 1.606851581022188 0.0
2.796593663741882 1.288013595743853 0.0
3.436143660897262 0.3940652474171653 0.0
2.682379445750112 0.4493639922429763 0.0
3.242313228541417 0.154845696987206 0.0
1.75965289115187 1.844031320058407 0.0
1.3642341383496 1.159631408929946 0.0
1.980047380836635 1.36362624976796 0.0
2.070303834520089 1.451946835577872 0.0
2.55866460451515 1.229901920133861 0.0
4.26844523535139 0.499131154814159 0.0
0.7315547646486098 1.500868845185841 0.0
2.716116351489881 1.570657861970705 0.0
2.283245236086922 0.4299499540566049 0.0
4.50573905238033 0.204273435313806 0.0
0.4942609476196695 1.795726564686194 0.0
3.605070352001925 0.644396355247622 0.0
3.171946621948212 0.9019117497969773 0.0
3.40309695214227 0.1789624633199048 0.0
1.59690304785773 1.821037536680094 0.0
4.776800700354217 0.5074282293075529 0.0
0.2231992996457826 1.492571770692447 0.0
1.293020597407515 1.839015256431498 0.0
3.706979402592485 0.1609847435685022 0.0
1.398281395597716 1.351857389185529 0.0
2.880181082677912 0.1378504756446906 0.0
2.119200639021148 1.861833157788504 0.0
2.408646939494887 0.2452196658480275 0.0
2.591353060505113 1.754780334151973 0.0
1.146570081566377 1.160946826906423 0.0
3.853429918433624 0.8390531730935771 0.0
2.920846657438631 1.149071660619678 0.0
2.101132283911678 1.226382957654413 0.0
2.903672483971366 0.7774662795474147 0.0
2.516386521935266 0.571665255016536 0.0
2.475412447847437 1.444413760085193 0.0
2.903041575637174 0.5510905120278109 0.0
3.666476299189054 0.8553176740217776 0.0
1.558137053653031 1.119389262041809 0.0
3.867595456948903 0.1475874639835382 0.0
1.132404543051097 1.852412536016462 0.0
2.635017655944937 0.9730281566682446 0.0
2.436667490139274 1.901171080200935 0.0
2.563332509860726 0.09882891979906516 0.0
2.091598337090247 1.040423151014485 0.0
0.8316881289508771 1.172977685150089 0.0
4.168311871049123 0.827022314849911 0.0
3.648565743761548 0.3681286963687066 0.0
1.355037313653319 1.636865536133179 0.0
2.58412781071005 1.576586299624529 0.0
2.41587218928995 0.4234137003754711 0.0
2.083716468691946 0.6634832154935376 0.0
1.843942294678346 1.256771801786488 0.0
[...]
POINT_DATA 380

VECTORS Velocity float
0.0000000000000000 0.0000000000000000 0.0
0.0000000000000000 0.0000000000000000 0.0
0.0000000000000000 0.0000000000000000 0.0
0.0000000000000000 0.0000000000000000 0.0
0.0000000000000000 0.0000000000000000 0.0
0.9186866594364991 -0.1330475481118220 0.0
0.0000000000000000 0.0000000000000000 0.0
0.0000000000000000 0.0000000000000000 0.0
0.0000000000000000 0.0000000000000000 0.0
0.0000000000000000 0.0000000000000000 0.0
0.0000000000000000 0.0000000000000000 0.0
0.0000000000000000 0.0000000000000000 0.0
0.0000000000000000 0.0000000000000000 0.0
0.0000000000000000 0.0000000000000000 0.0
0.0000000000000000 0.0000000000000000 0.0
0.0000000000000000 0.0000000000000000 0.0
0.0000000000000000 0.0000000000000000 0.0
0.0000000000000000 0.0000000000000000 0.0
0.0000000000000000 0.0000000000000000 0.0
0.0000000000000000 0.0000000000000000 0.0
0.0000000000000000 0.0000000000000000 0.0
0.0000000000000000 0.0000000000000000 0.0
0.0000000000000000 0.0000000000000000 0.0
0.0000000000000000 0.0000000000000000 0.0
0.0000000000000000 0.0000000000000000 0.0
0.0000000000000000 0.0000000000000000 0.0
0.0000000000000000 0.0000000000000000 0.0
0.0000000000000000 0.0000000000000000 0.0
0.0000000000000000 0.0000000000000000 0.0
0.0000000000000000 0.0000000000000000 0.0
0.0000000000000000 0.0000000000000000 0.0
0.0000000000000000 0.0000000000000000 0.0
0.0000000000000000 0.0000000000000000 0.0
0.0000000000000000 0.0000000000000000 0.0
0.0000000000000000 0.0000000000000000 0.0
0.0000000000000000 0.0000000000000000 0.0
0.0000000000000000 0.0000000000000000 0.0
0.0000000000000000 0.0000000000000000 0.0
0.0000000000000000 0.0000000000000000 0.0
0.0000000000000000 0.0000000000000000 0.0
0.0000000000000000 0.0000000000000000 0.0
0.0000000000000000 0.0000000000000000 0.0
0.0000000000000000 0.0000000000000000 0.0
1.1552171532487330 0.3640737618773911 0.0
0.7957342126260576 0.0631671476775780 0.0
1.1395551905488621 -0.2966527972868342 0.0
0.0000000000000000 0.0000000000000000 0.0
0.0000000000000000 0.0000000000000000 0.0
0.0000000000000000 0.0000000000000000 0.0
0.0000000000000000 0.0000000000000000 0.0
0.0000000000000000 0.0000000000000000 0.0
0.0000000000000000 0.0000000000000000 0.0
0.0000000000000000 0.0000000000000000 0.0
0.0000000000000000 0.0000000000000000 0.0
0.0000000000000000 0.0000000000000000 0.0
0.0000000000000000 0.0000000000000000 0.0
0.0000000000000000 0.0000000000000000 0.0
0.0000000000000000 0.0000000000000000 0.0
0.0000000000000000 0.0000000000000000 0.0
0.0000000000000000 0.0000000000000000 0.0
0.0000000000000000 0.0000000000000000 0.0
0.0000000000000000 0.0000000000000000 0.0
0.0000000000000000 0.0000000000000000 0.0
0.0000000000000000 0.0000000000000000 0.0
0.0000000000000000 0.0000000000000000 0.0
0.0000000000000000 0.0000000000000000 0.0
0.0000000000000000 0.0000000000000000 0.0
0.0000000000000000 0.0000000000000000 0.0
0.0000000000000000 0.0000000000000000 0.0
0.0000000000000000 0.0000000000000000 0.0
0.0000000000000000 0.0000000000000000 0.0
0.0000000000000000 0.0000000000000000 0.0
0.0000000000000000 0.0000000000000000 0.0
0.0000000000000000 0.0000000000000000 0.0
0.0000000000000000 0.0000000000000000 0.0
0.0000000000000000 0.0000000000000000 0.0
0.0000000000000000 0.0000000000000000 0.0
0.0000000000000000 0.0000000000000000 0.0
0.0000000000000000 0.0000000000000000 0.0
1.0000000000000000 0.0000000000000000 0.0
1.0000000000000000 0.0000000000000000 0.0
1.0000000000000000 0.0000000000000000 0.0
0.8968511930420571 -0.7891159072153714 0.0
0.7870629548684693 -0.8052280614774199 0.0
1.5051353552470728 -0.2593030806829913 0.0
1.4475345553610477 -0.2555682617091885 0.0
0.5799876536302033 -1.1750373075611558 0.0
0.2935493298004135 -0.2051010493536850 0.0
0.2567013960585618 -0.2001016311856909 0.0
0.5649553481930781 -1.2039629699404841 0.0
1.5739062256711571 -0.0781958618910240 0.0
1.6104512550625474 -0.1176062735821398 0.0
0.2771137976851667 -0.7002848850131813 0.0
0.2562447790623286 -0.6327568203671415 0.0
1.1453659037240995 -1.0000292548981027 0.0
0.7080241240351351 -0.1927389216341358 0.0
0.6745167021905160 -0.1806774013603589 0.0
1.1473045000291706 -0.9072160109223009 0.0
1.6000988427726506 -0.0187331444864128 0.0
1.5975213466143237 -0.0083675027395719 0.0
1.4939811740809983 -0.3626150093468423 0.0
1.5008132965351948 -0.0665155619971869 0.0
1.4428691693199245 -0.3241763686402678 0.0
0.2515051322453707 -0.8665418210341685 0.0
1.5140664776499746 -0.0698800724421991 0.0
1.5837084508460111 0.0096328678078599 0.0
1.5335074055547708 0.0359017575455222 0.0
1.2659830349082113 -0.4900487522435560 0.0
0.6755118118587612 -1.1338642264470693 0.0
1.1649607831144548 -0.4413562213193344 0.0
0.6687088958358857 -1.1429394094764245 0.0
0.0711819810597336 -0.0694385694555589 0.0
0.0593864084189416 -0.0635021722900055 0.0
1.1885178089854134 -0.0826831911473889 0.0
1.1181678375279100 -0.0906566543080423 0.0
0.1216517521441408 -0.3458681443458314 0.0
0.0892483427628859 -0.2878938328017518 0.0
0.1692289920781221 -0.7805541214661446 0.0
0.4838563398347750 -0.9518336250478139 0.0
0.4662176536816819 -0.5481699807308630 0.0
0.5298596187921919 -0.5421363447481332 0.0
1.3912838837110275 -0.0113975570134353 0.0
1.3066015701637850 -0.0808079634826561 0.0
0.8132518664383550 -0.1262278217083631 0.0
0.8750849648053041 -0.1279661314914516 0.0
0.5618156629622727 -1.0241491421327151 0.0
0.6226556416312120 -1.1311924178985471 0.0
0.3152672054567677 -0.0309561784046631 0.0
0.2967856762888876 -0.0356918480980394 0.0
1.2782182824149244 0.0121985566800689 0.0
1.2789235694292118 0.0089009104755410 0.0
0.4584348867811943 -1.0254014317140003 0.0
1.2570335954590721 -0.0005331785567103 0.0
0.8644195475630095 -1.0715772000043016 0.0
0.7782578565552708 -0.4533804509597881 0.0
0.7940699092844978 -0.4920089047412987 0.0
0.0192966858837510 -0.3929394500156334 0.0
1.4927010236892717 -0.5558612050588452 0.0
0.0628273328251358 -0.4192427395972232 0.0
1.3445872242831196 0.0065332235589086 0.0
1.3448274967570584 0.0149309124980203 0.0
1.1151423621705292 -0.7689615028705524 0.0
1.3762166226701602 -0.0383672985002174 0.0
1.3737662018610310 -0.0565149402848461 0.0
0.0606837903588395 -0.1228475688369289 0.0
0.0524912685565853 -0.1088706455123856 0.0
0.7921170236129437 -0.0091764552732267 0.0
0.7771019919148463 -0.0262395990491363 0.0
1.2511305582337293 -0.5857949332105745 0.0
1.2441626546279005 -0.1036100182314947 0.0
1.4362145643332012 -0.5637132274401503 0.0
1.5333668192960721 -0.0922012753628062 0.0
1.2063728237965996 -0.0639243202249535 0.0
0.6454927056055801 -1.1962094572698729 0.0
0.9176422284302364 -0.9323166302923185 0.0
0.7921180514137834 -1.2171497557842572 0.0
1.0845182452484106 -0.0627551540239781 0.0
0.5826249532189556 -0.8613055512794088 0.0
1.0657711339752158 -0.0513012227181406 0.0
1.0674248509608921 -0.0521150566556249 0.0
1.5759813143704513 -0.0714483993692528 0.0
0.1044079266236843 -0.0394936965775107 0.0
0.0944261882722998 -0.0375208576854858 0.0
1.0251208929452975 -0.8926066446601579 0.0
0.0436736012017804 -0.2164164222165892 0.0
0.4850876228646012 -0.7269772313222211 0.0
0.2413661085452422 -0.8173031160038400 0.0
1.5613967605838475 -0.1683350722388525 0.0
1.2288885661847069 -0.2190025775557651 0.0
1.2101990632293640 -0.2003811619210757 0.0
1.1805441098858547 -0.2669654196415441 0.0
0.4320020459207886 -0.2188504027377279 0.0
0.4639597641734511 -0.2115971105573098 0.0
1.2589965647538615 -0.2924835711560155 0.0
1.0452524311188167 -0.0260445286912970 0.0
1.0433702151093383 -0.0269027664689498 0.0
0.9429225443515484 -0.1110910156897752 0.0
1.0104542224619757 -0.1160284189667324 0.0
0.2785391748962861 -0.0504958127224331 0.0
0.2696684308097831 -0.0475243458501976 0.0
0.8393052254102132 -0.0210977281306823 0.0
1.5773128416946141 -0.1571275987006392 0.0
0.0221985280474489 -0.0170689490517947 0.0
0.0171570331818554 -0.0156672723586457 0.0
1.5371683749846139 -0.0975581312709089 0.0
1.5694880396013118 -0.1267511694707343 0.0
0.1366451708347895 -0.5203841876826402 0.0
1.0960330873261375 0.2305749337852532 0.0
1.0938039968586661 0.2309970534430834 0.0
0.2862058653247022 -0.5155154379128076 0.0
0.2451893031338329 -0.4581223941461458 0.0
0.6569433502329453 -0.9999864717103721 0.0
0.9296345538854283 -0.0553082305035225 0.0
0.8842973720171354 -0.1828640638063868 0.0
0.0388715678100343 -0.2017523172274396 0.0
0.4691089823393841 -1.1202000434141410 0.0
0.2599875438749296 -0.8508752805650845 0.0
0.7939660424945406 -0.1276598971077690 0.0
1.1288334182655861 -0.7893514796322129 0.0
1.5604498633069053 -0.0530297990599727 0.0
0.5640426109090391 -1.1116029236651481 0.0
0.0259910009333081 -0.3401535023796416 0.0
1.0976320405668905 -0.6569683217209759 0.0
0.0644702044856213 -0.3168670948088728 0.0
0.7972507687035530 -1.0156726439593446 0.0
0.4105258293855591 -0.0209328321123484 0.0
0.4318279515232792 -0.0186358770673810 0.0
0.0468289136467316 -0.1064778193161493 0.0
0.0280069951799423 -0.0329510949661462 0.0
0.0222708473463366 -0.0289879261585445 0.0
1.2718210118309050 -0.7644546525025055 0.0
0.9628163660150044 -0.6254627360577785 0.0
0.5846383116928432 -1.1544787103812177 0.0
0.0331785765664131 -0.1291693355873363 0.0
0.8660605337400351 0.1645641512137439 0.0
0.8388755479508906 0.1312655403977634 0.0
0.1622649145050693 -0.1749947695482951 0.0
0.1404070688821302 -0.1611578091841109 0.0
1.6409499936485887 -0.1209925097877092 0.0
1.5952072872675995 -0.3252448905495204 0.0
0.6599600058369582 -1.1946591893736693 0.0
0.7065412223979110 -1.1415779263835824 0.0
0.1447567061789637 -0.4496040724850595 0.0
0.4185326427078512 -1.0902567066965507 0.0
0.0377363541296011 -0.0269827105097709 0.0
0.0435961749191419 -0.0292494956597676 0.0
0.4504440517864599 -1.0631983546636987 0.0
0.6535315933201049 -0.1339609985252483 0.0
0.6179430583055456 -0.1201804074747236 0.0
0.9858781028762725 -0.4229401850879019 0.0
1.3578095752032295 -0.0319487099385223 0.0
0.1579898868799273 -0.6251431070238844 0.0
1.3040796717607921 -0.0638036666392536 0.0
0.9399435297856901 -0.3971964416422671 0.0
0.5045353770296300 -0.0329040337974997 0.0
0.5278436291419648 -0.0359761872026311 0.0
0.8939189400820368 -0.0199727325781774 0.0
1.5341357848662827 -0.3509822212687807 0.0
1.4596356935240713 -0.4084493478019720 0.0
0.5820358551358680 -1.0252746271072597 0.0
1.6000760037618424 -0.0534117954210904 0.0
1.5899084495087321 -0.0448655192272944 0.0
0.2284500660555158 -0.3110771196474745 0.0
0.1968926288229835 -0.2898383434233337 0.0
0.7797803133236844 -0.1433614589578444 0.0
0.8007655193249330 -0.1598608100072527 0.0
1.5590022423112124 -0.0760238801410691 0.0
0.5625456948224993 -0.0584815115818242 0.0
0.6337184102240829 -0.0787919418271135 0.0
0.6585029935516333 -0.0809324533848367 0.0
1.2611454028490880 0.0573677955398406 0.0
1.2108919797726101 0.0466141762333772 0.0
0.6390572585726196 0.0333452895927658 0.0
0.6396855097387631 0.0307948688925527 0.0
1.4565874400052099 -0.0530793703964329 0.0
0.3153145651354115 -0.0548400981901104 0.0
0.3328005172889249 -0.0587872891868572 0.0
0.2443740615270578 -0.1160704642700749 0.0
0.2653465299659164 -0.1177673044283252 0.0
0.7321790411619600 0.0589330718332101 0.0
0.7337767234306476 0.1059540050308997 0.0
0.0362548607485254 -0.3734495868076118 0.0
1.3144058307447679 -0.7153420542169828 0.0
1.3426859970800917 -0.7467802089219799 0.0
0.6723993577862262 -0.6479936593542496 0.0
0.7649020444173924 -0.5811042753776997 0.0
1.4167697914538437 -0.4221501970981061 0.0
0.6069895318919923 0.0251585922301310 0.0
0.6304204882578567 -0.0173391568071067 0.0
0.5368938177317389 -0.1090143860216443 0.0
0.5394334755859640 -0.1066973003850605 0.0
0.6733448257963747 -1.2261267781620915 0.0
0.0995961091080079 -0.0246101658870628 0.0
0.0943720736306903 -0.0255323125102754 0.0
0.5774541019731790 -0.7452323931162611 0.0
0.6719447543897544 -0.0977379913997942 0.0
0.6706350881277360 -0.1056269663710528 0.0
1.3087337819190121 -0.1389795471118745 0.0
1.3144017755276947 -0.1136032772299272 0.0
0.4738061126500493 -0.3230606632885761 0.0
0.4142348526619233 -0.3233134146632569 0.0
-0.0029655575968574 -0.1724877262409383 0.0
1.3710903354847046 -0.1499440284959409 0.0
0.6117995719866925 -0.8165386308671466 0.0
0.1197572033664110 -0.4447593855868073 0.0
0.4362817315523543 -0.7233489330094739 0.0
0.9832875540828074 -0.9786273184310411 0.0
0.8943872384507071 -1.1548325630431782 0.0
1.4966617012352583 -0.0647018949107145 0.0
1.4922718875882013 -0.0960082662758459 0.0
0.6456069066296647 -1.2232389789484448 0.0
1.0405009070990825 -0.2684834027790146 0.0
0.9914282149706922 -0.2181296415187398 0.0
0.5177877286649480 -0.1615003007305628 0.0
0.5005499891910626 -0.1674961504670288 0.0
1.5583865256237686 -0.1078070141209359 0.0
0.9779315858168004 -1.0852476598309422 0.0
0.4127610222957883 -1.0696631722163099 0.0
1.2118983035598223 -0.1680742620441429 0.0
1.5663368413441201 -0.0914145044854070 0.0
1.5757850026232019 -0.0963459542074206 0.0
1.2821357635833024 -0.1693063449129577 0.0
0.1034088846605617 -0.0103520093078231 0.0
0.1114464487412939 -0.0085894833349158 0.0
0.4212453121429915 0.0676637035534911 0.0
1.3615337304841286 -0.1371394684170778 0.0
1.3224454149458131 0.0326402218044057 0.0
0.4359211259466134 -0.8942588285131333 0.0
0.1217617240297941 -0.2397081973937855 0.0
0.0991441420111037 -0.2073211238206471 0.0
0.1649136320897312 -0.0857248947277137 0.0
0.1465779748086109 -0.0814394464970243 0.0
0.3750745981197688 -0.6555071305661231 0.0
0.0027514401732456 -0.1260012223922936 0.0
0.8980759803106574 -0.8505357866300428 0.0
0.5211951647747718 0.0366197885269099 0.0
0.5042485501847224 0.0190550031301640 0.0
1.4810652677452796 -0.0479714421921480 0.0
1.4811757537724914 -0.0596347022098284 0.0
0.9405585930351360 -1.0805134099245912 0.0
1.5964689708372375 -0.1700746685018334 0.0
0.4290869256912127 -0.0483962481050042 0.0
0.0255600189648322 -0.0438753610589875 0.0
0.0184860021089008 -0.0380633172697303 0.0
0.3711436081520056 -0.8163390456542804 0.0
0.0229864344604653 -0.1183699717089408 0.0
0.7166451157838170 -0.9118100628096036 0.0
1.4470318729594955 -0.1397555286050306 0.0
0.6466367235898034 -0.4110220197635885 0.0
0.6049790006942760 -0.4306465781320003 0.0
0.6250374309120859 -1.1776862937698462 0.0
0.6699543861183739 0.0782305022770334 0.0
0.6670956926335532 0.0808652215436521 0.0
0.7798322538979504 -1.1342190353251362 0.0
0.1258122888259929 -0.6278106458831395 0.0
0.1081834851613666 -0.4931972800876194 0.0
0.0064918909723136 -0.1215773081316909 0.0
0.8421508986374333 0.0649205959445441 0.0
0.8048273647146696 0.0968504878214193 0.0
0.8329954453922834 -0.0507692061553784 0.0
0.8045113145472864 -0.0670914131637716 0.0
0.3142315811922528 -0.8908650218049370 0.0
0.6502834207019940 -0.1534188882740692 0.0
0.7658478330205120 -0.9936232950150991 0.0
1.3551743319539189 -0.7783112724374782 0.0
0.5358423369787774 0.0842037190615200 0.0
1.4804667059379215 -0.0117971023019983 0.0
1.4841730498790757 -0.0078754618387492 0.0
1.0408696066145202 -1.0207932343910975 0.0
0.7280448732870312 -1.1543491727095285 0.0
1.3281496232340710 -0.1600194507365570 0.0
0.7046120047849520 -1.1906318823988100 0.0
0.0753406397838918 -0.4153278609083770 0.0
1.1845195952836955 -0.0586744787069494 0.0
0.3745766289320779 -0.9516282733496090 0.0
1.6499927847564442 -0.0925974216775748 0.0
0.4109812631869029 -0.0051293573152128 0.0
1.5811304816042033 -0.0861305459351441 0.0
1.5503311266999438 -0.0993121093913032 0.0
-0.0022169840137787 -0.0004479388372680 0.0
-0.0004146962014626 -0.0002280929349040 0.0
0.5347206308890853 0.0424831348800226 0.0
0.3458228088215120 -0.0464304356365645 0.0
-0.0005809123916251 -0.0060266249226495 0.0
0.0008890498585817 -0.0064404841192822 0.0
0.5560641207276121 -0.0345238357845880 0.0
0.6298274268638752 -0.8727584558348114 0.0
0.5590986115931209 -0.0341103465002265 0.0
0.5531771123549091 -0.0270598295049858 0.0
0.6947113374757317 -0.3072154823663762 0.0
0.7405288072184080 -0.3021003790944792 0.0
0.6303456834223469 -0.7546490848760520 0.0
0.3145484303966893 -0.3947320371017438 0.0
0.3594459280367415 -0.4290649963281182 0.0
0.0039485350322907 -0.0015788837961526 0.0
0.0007996385919209 -0.0017638058175297 0.0
1.2993940300960409 -0.4763571483370604 0.0
1.3366539008833362 -0.6499566941986240 0.0
0.9291155337730654 -0.6064688790800513 0.0
0.7586928985224247 -0.4420899321039442 0.0
