# vtk DataFile Version 3.0
LucasCarvalhoTCC Results
ASCII

DATASET POLYDATA
FIELD FieldData 1
TIME 1 1 double
0.4

POINTS 380 float
0.0 2.0 0.0
2.0 2.0 0.0
3.0 2.0 0.0
3.0 1.0 0.0
5.0 1.0 0.0
5.0 0.0 0.0
3.0 0.0 0.0
2.0 0.0 0.0
2.0 1.0 0.0
0.0 1.0 0.0
0.2643114543905713 2.0 0.0
0.5169795502969444 2.0 0.0
0.7585171880292413 2.0 0.0
0.9894145836600268 2.0 0.0
1.210140497826619 2.0 0.0
1.421143008568911 2.0 0.0
1.622850459538253 2.0 0.0
1.815672303789548 2.0 0.0
2.188552664328277 2.0 0.0
2.359329284173903 2.0 0.0
2.514005696104645 2.0 0.0
2.654099788331341 2.0 0.0
2.780986322989182 2.0 0.0
2.895910470953052 2.0 0.0
3.0 1.9 0.0
3.0 1.8 0.0
3.0 1.7 0.0
3.0 1.6 0.0
3.0 1.5 0.0
3.0 1.4 0.0
3.0 1.3 0.0
3.0 1.2 0.0
3.0 1.1 0.0
3.105031513416626 1.0 0.0
3.221094637894669 1.0 0.0
3.349348047908936 1.0 0.0
3.491072094154001 1.0 0.0
3.647681638607018 1.0 0.0
3.820740106959136 1.0 0.0
4.011975186625977 1.0 0.0
4.223295996958671 1.0 0.0
4.456812096249916 1.0 0.0
4.714854728122151 1.0 0.0
5.0 0.7500000000000003 0.0
5.0 0.5000000000000012 0.0
5.0 0.2500000000000011 0.0
4.735688545609428 0.0 0.0
4.483020449703056 0.0 0.0
4.241482811970759 0.0 0.0
4.010585416339973 0.0 0.0
3.789859502173381 0.0 0.0
3.578856991431089 0.0 0.0
3.377149540461747 0.0 0.0
3.184327696210452 0.0 0.0
2.811447335671723 0.0 0.0
2.640670715826097 0.0 0.0
2.485994303895355 0.0 0.0
2.345900211668659 0.0 0.0
2.219013677010818 0.0 0.0
2.104089529046948 0.0 0.0
2.0 0.1 0.0
2.0 0.2 0.0
2.0 0.3 0.0
2.0 0.4 0.0
2.0 0.5 0.0
2.0 0.6 0.0
2.0 0.7 0.0
2.0 0.8 0.0
2.0 0.9 0.0
1.894968486583374 1.0 0.0
1.77890536210533 1.0 0.0
1.650651952091063 1.0 0.0
1.508927905845999 1.0 0.0
1.352318361392982 1.0 0.0
1.179259893040864 1.0 0.0
0.9880248133740233 1.0 0.0
0.7767040030413299 1.0 0.0
0.5431879037500846 1.0 0.0
0.2851452718778493 1.0 0.0
0.0 1.25 0.0
0.0 1.499999999999999 0.0
0.0 1.749999999999999 0.0
2.426045913985508 1.348290599604586 0.0
2.562221387987337 0.6558377602558874 0.0
1.966703786708101 1.492474555319359 0.0
3.033486484223225 0.4973568340887861 0.0
2.371610747520728 0.97814425147097 0.0
2.648098402859118 1.648016516253387 0.0
2.351901597140882 0.3519834837466129 0.0
2.694321138879857 1.061432730999581 0.0
1.441644339445862 1.496646809257773 0.0
3.554831642064292 0.501744031268764 0.0
2.720742750697982 1.350625068836981 0.0
2.282037541072919 0.639419348257894 0.0
2.813390610951134 0.7911761792959446 0.0
2.310700631729327 1.679155452525512 0.0
2.688751528716965 0.3206838402855661 0.0
2.211165393176843 1.213708510063781 0.0
0.9449004170027906 1.496357611130017 0.0
4.05509958299721 0.5036423888699835 0.0
3.025501657200047 0.7528388163714679 0.0
1.714778657098197 1.300039655550584 0.0
1.958264922640818 1.245975101752485 0.0
2.206386339371814 0.8500000000000001 0.0
3.336706349465057 0.704398544338507 0.0
4.529565928894533 0.555233644424822 0.0
0.4704340711054673 1.444766355575178 0.0
2.186983355180128 1.461437746541105 0.0
2.553715879020142 0.8859594914241276 0.0
2.782212276375736 0.5474565156445963 0.0
2.500206140967324 1.148517546040804 0.0
2.803373162317882 1.783880361314082 0.0
2.196626837682118 0.2161196386859174 0.0
1.735623536927746 1.664129737658362 0.0
3.268802735993943 0.3358439745752063 0.0
2.799454045372581 1.51553500056848 0.0
2.18762015375897 0.4992029885790829 0.0
2.813478812948685 1.18678600527921 0.0
2.400994471757771 0.7612313552289275 0.0
2.405444563947088 0.5311203927463914 0.0
2.583195945356847 1.473216966241769 0.0
3.734210872783077 0.7260959952797862 0.0
1.256500988572085 1.265010492624376 0.0
2.938353069321001 0.2909212553641365 0.0
2.061245308362322 1.709221243241415 0.0
2.182240881432738 1.001025052084926 0.0
2.830214026212788 0.9796244234047695 0.0
2.49023894829247 1.787687811117195 0.0
2.50976105170753 0.2123121888828049 0.0
1.194806886820808 1.686899295332255 0.0
3.805193113179192 0.3131007046677451 0.0
2.655039231860651 1.208917360245127 0.0
1.493530449555064 1.231198576616718 0.0
2.345622594939228 1.152685186835846 0.0
2.41380980106708 1.521513100394759 0.0
2.58979513084283 0.4863225267637531 0.0
2.135472648094309 0.7246460081196311 0.0
2.912574128751924 0.660128736186259 0.0
2.866043013605144 1.353074765380587 0.0
0.6928324624395237 1.69170809873467 0.0
4.307167537560476 0.3082919012653306 0.0
2.071506740582853 1.128535871978767 0.0
0.6831902494895832 1.302725441792086 0.0
4.316809750510417 0.6972745582079137 0.0
2.85534466702333 1.667491236848871 0.0
2.141886244104996 0.336139391754002 0.0
1.447743165823209 1.773242752731258 0.0
3.554386585610856 0.224002072703283 0.0
2.96485662756902 0.8593908564801968 0.0
3.240425509636175 0.8099760775594669 0.0
2.088410584923666 1.339747073830609 0.0
3.277530767974837 0.4939020807639749 0.0
3.534313505233912 0.7935179117986669 0.0
2.546683861402325 1.011736398479819 0.0
2.664793655038503 0.758149595673951 0.0
2.7009922066801 0.9086021996324817 0.0
1.844652141496971 1.153158997353228 0.0
2.575910747861113 1.316876286520138 0.0
3.994328863599566 0.7454319923658932 0.0
1.005671136400434 1.254568007634107 0.0
1.722192091537185 1.482888323667831 0.0
2.644751416415203 1.850904811198953 0.0
2.355248583584797 0.1490951888010467 0.0
2.31560379269905 1.25706851182614 0.0
2.129697972466254 0.5864366202645266 0.0
2.417220568140766 0.6397160301847872 0.0
2.867945749403976 1.069821281672812 0.0
3.182303046124178 0.6739667261124369 0.0
4.702774994215813 0.2953677284017739 0.0
0.2972250057841874 1.704632271598226 0.0
2.90043748182062 0.4316738443013928 0.0
2.486081387366873 0.3514585853722887 0.0
2.513918612633127 1.648541414627711 0.0
2.086778258621772 1.563111332603502 0.0
4.025359850459486 0.2638518716814435 0.0
0.9746401495405139 1.736148128318556 0.0
3.116389458098145 0.2933651166122753 0.0
1.885410353788165 1.707062521230272 0.0
2.327134732627959 1.833634230002939 0.0
2.672865267372041 0.1663657699970617 0.0
1.675899428547673 1.15999616666306 0.0
1.858973331615206 1.373382723203102 0.0
2.860266039499884 1.862282581689995 0.0
2.139733960500116 0.1377174183100045 0.0
1.257473476073173 1.479081588926576 0.0
3.731624273377778 0.5208146070195914 0.0
2.115038607594509 0.9238947313642476 0.0
0.2734661728051435 1.270630989444945 0.0
4.726533827194856 0.7293690105550548 0.0
2.699965708650878 1.465007479364728 0.0
2.298365077320068 0.5341069340550768 0.0
2.510583000486659 0.7602856732279889 0.0
3.370667741214912 0.8392397884376295 0.0
3.067541604254986 0.8806352314757129 0.0
2.90073732483139 1.443475210354718 0.0
2.264071206758208 0.9501943312745662 0.0
2.278663096491763 0.7489636980394857 0.0
1.952511813454414 1.110576661474517 0.0
2.744352083917141 0.687787375233183 0.0
1.566252941493004 1.383661493752942 0.0
2.437660520624072 0.8703573012735125 0.0
2.904826075218911 1.261819176983655 0.0
2.305967018083784 1.391390767447104 0.0
2.105729326736999 0.8145314366030645 0.0
2.428967188976762 1.236966721617647 0.0
3.060475488407204 0.1442825789852263 0.0
1.934979199332455 1.852811714602595 0.0
2.095475260770118 0.4348597444661615 0.0
2.914777085426361 1.759093454264707 0.0
2.084827330449114 0.2414252069642749 0.0
2.207128288422204 1.315477221019454 0.0
2.658751426439581 0.5773232450959589 0.0
2.612380011409894 1.114144853433198 0.0
2.897371573983894 1.569769587751228 0.0
0.5001010519014215 1.226918930408543 0.0
4.499898948098578 0.7730810695914568 0.0
2.753086810589338 1.690362801865437 0.0
2.246793053318422 0.3097947118702842 0.0
3.391580469276819 0.5673489147038103 0.0
3.035026488699165 0.6179797538177514 0.0
2.449819864663089 1.055109427275025 0.0
2.27653308928065 1.054384468582349 0.0
2.794675693196835 1.418106589018447 0.0
2.778866980525137 1.083577784614141 0.0
2.244522876020972 0.1116738824400324 0.0
2.755477123979027 1.888326117559968 0.0
2.323887028942199 0.8604475039748537 0.0
2.204900210979926 1.747483509451062 0.0
2.794853185869193 0.2526222191943996 0.0
2.320767315286541 1.530441598510029 0.0
1.550828143561484 1.606851581022188 0.0
2.796593663741882 1.288013595743853 0.0
3.436143660897262 0.3940652474171653 0.0
2.682379445750112 0.4493639922429763 0.0
3.242313228541417 0.154845696987206 0.0
1.75965289115187 1.844031320058407 0.0
1.3642341383496 1.159631408929946 0.0
1.980047380836635 1.36362624976796 0.0
2.070303834520089 1.451946835577872 0.0
2.55866460451515 1.229901920133861 0.0
4.26844523535139 0.499131154814159 0.0
0.7315547646486098 1.500868845185841 0.0
2.716116351489881 1.570657861970705 0.0
2.283245236086922 0.4299499540566049 0.0
4.50573905238033 0.204273435313806 0.0
0.4942609476196695 1.795726564686194 0.0
3.605070352001925 0.644396355247622 0.0
3.171946621948212 0.9019117497969773 0.0
3.40309695214227 0.1789624633199048 0.0
1.59690304785773 1.821037536680094 0.0
4.776800700354217 0.5074282293075529 0.0
0.2231992996457826 1.492571770692447 0.0
1.293020597407515 1.839015256431498 0.0
3.706979402592485 0.1609847435685022 0.0
1.398281395597716 1.351857389185529 0.0
2.880181082677912 0.1378504756446906 0.0
2.119200639021148 1.861833157788504 0.0
2.408646939494887 0.2452196658480275 0.0
2.591353060505113 1.754780334151973 0.0
1.146570081566377 1.160946826906423 0.0
3.853429918433624 0.8390531730935771 0.0
2.920846657438631 1.149071660619678 0.0
2.101132283911678 1.226382957654413 0.0
2.903672483971366 0.7774662795474147 0.0
2.516386521935266 0.571665255016536 0.0
2.475412447847437 1.444413760085193 0.0
2.903041575637174 0.5510905120278109 0.0
3.666476299189054 0.8553176740217776 0.0
1.558137053653031 1.119389262041809 0.0
3.867595456948903 0.1475874639835382 0.0
1.132404543051097 1.852412536016462 0.0
2.635017655944937 0.9730281566682446 0.0
2.436667490139274 1.901171080200935 0.0
2.563332509860726 0.09882891979906516 0.0
2.091598337090247 1.040423151014485 0.0
0.8316881289508771 1.172977685150089 0.0
4.168311871049123 0.827022314849911 0.0
3.648565743761548 0.3681286963687066 0.0
1.355037313653319 1.636865536133179 0.0
2.58412781071005 1.576586299624529 0.0
2.41587218928995 0.4234137003754711 0.0
2.083716468691946 0.6634832154935376 0.0
1.843942294678346 1.256771801786488 0.0
[...]
POINT_DATA 380

VECTORS Velocity float
0.0000000000000000 0.0000000000000000 0.0
0.0000000000000000 0.0000000000000000 0.0
0.0000000000000000 0.0000000000000000 0.0
0.0000000000000000 0.0000000000000000 0.0
0.0000000000000000 0.0000000000000000 0.0
0.9183433146448802 -0.1230160710384947 0.0
0.0000000000000000 0.0000000000000000 0.0
0.0000000000000000 0.0000000000000000 0.0
0.0000000000000000 0.0000000000000000 0.0
0.0000000000000000 0.0000000000000000 0.0
0.0000000000000000 0.0000000000000000 0.0
0.0000000000000000 0.0000000000000000 0.0
0.0000000000000000 0.0000000000000000 0.0
0.0000000000000000 0.0000000000000000 0.0
0.0000000000000000 0.0000000000000000 0.0
0.0000000000000000 0.0000000000000000 0.0
0.0000000000000000 0.0000000000000000 0.0
0.0000000000000000 0.0000000000000000 0.0
0.0000000000000000 0.0000000000000000 0.0
0.0000000000000000 0.0000000000000000 0.0
0.0000000000000000 0.0000000000000000 0.0
0.0000000000000000 0.0000000000000000 0.0
0.0000000000000000 0.0000000000000000 0.0
0.0000000000000000 0.0000000000000000 0.0
0.0000000000000000 0.0000000000000000 0.0
0.0000000000000000 0.0000000000000000 0.0
0.0000000000000000 0.0000000000000000 0.0
0.0000000000000000 0.0000000000000000 0.0
0.0000000000000000 0.0000000000000000 0.0
0.0000000000000000 0.0000000000000000 0.0
0.0000000000000000 0.0000000000000000 0.0
0.0000000000000000 0.0000000000000000 0.0
0.0000000000000000 0.0000000000000000 0.0
0.0000000000000000 0.0000000000000000 0.0
0.0000000000000000 0.0000000000000000 0.0
0.0000000000000000 0.0000000000000000 0.0
0.0000000000000000 0.0000000000000000 0.0
0.0000000000000000 0.0000000000000000 0.0
0.0000000000000000 0.0000000000000000 0.0
0.0000000000000000 0.0000000000000000 0.0
0.0000000000000000 0.0000000000000000 0.0
0.0000000000000000 0.0000000000000000 0.0
0.0000000000000000 0.0000000000000000 0.0
1.1529264930079373 0.3194743521763056 0.0
0.8166738202435611 0.0196365511005923 0.0
1.1205069569769783 -0.2795859945518114 0.0
0.0000000000000000 0.0000000000000000 0.0
0.0000000000000000 0.0000000000000000 0.0
0.0000000000000000 0.0000000000000000 0.0
0.0000000000000000 0.0000000000000000 0.0
0.0000000000000000 0.0000000000000000 0.0
0.0000000000000000 0.0000000000000000 0.0
0.0000000000000000 0.0000000000000000 0.0
0.0000000000000000 0.0000000000000000 0.0
0.0000000000000000 0.0000000000000000 0.0
0.0000000000000000 0.0000000000000000 0.0
0.0000000000000000 0.0000000000000000 0.0
0.0000000000000000 0.0000000000000000 0.0
0.0000000000000000 0.0000000000000000 0.0
0.0000000000000000 0.0000000000000000 0.0
0.0000000000000000 0.0000000000000000 0.0
0.0000000000000000 0.0000000000000000 0.0
0.0000000000000000 0.0000000000000000 0.0
0.0000000000000000 0.0000000000000000 0.0
0.0000000000000000 0.0000000000000000 0.0
0.0000000000000000 0.0000000000000000 0.0
0.0000000000000000 0.0000000000000000 0.0
0.0000000000000000 0.0000000000000000 0.0
0.0000000000000000 0.0000000000000000 0.0
0.0000000000000000 0.0000000000000000 0.0
0.0000000000000000 0.0000000000000000 0.0
0.0000000000000000 0.0000000000000000 0.0
0.0000000000000000 0.0000000000000000 0.0
0.0000000000000000 0.0000000000000000 0.0
0.0000000000000000 0.0000000000000000 0.0
0.0000000000000000 0.0000000000000000 0.0
0.0000000000000000 0.0000000000000000 0.0
0.0000000000000000 0.0000000000000000 0.0
0.0000000000000000 0.0000000000000000 0.0
1.0000000000000000 0.0000000000000000 0.0
1.0000000000000000 0.0000000000000000 0.0
1.0000000000000000 0.0000000000000000 0.0
0.6837223122675204 -0.5354881388047003 0.0
0.6295971760207825 -0.5491865930399146 0.0
1.1596250476101180 -0.2458340958897098 0.0
1.1136929259745127 -0.2577434063056703 0.0
0.4863839450908943 -0.8437336206792414 0.0
0.4633230305355911 -0.1631271171038602 0.0
0.4366638740245298 -0.1745126147041828 0.0
0.4501500866443899 -0.8876066520325476 0.0
1.3574522412387655 -0.0770124448420509 0.0
1.3598224439068511 -0.0778549894314627 0.0
0.2953419899790926 -0.4901508514306042 0.0
0.2906910400097238 -0.4995227864118308 0.0
0.9428143800214888 -0.8386108599135624 0.0
0.7997674877644699 -0.1650726352236251 0.0
0.7900913459013098 -0.1693565657987957 0.0
0.9362696470930497 -0.7562701794646983 0.0
1.4801887631700368 -0.0092518758024438 0.0
1.4789887256023015 -0.0011266930236636 0.0
1.4213777340217688 -0.4309089900998081 0.0
1.3651756107319888 -0.1720279519335207 0.0
1.4318887712006076 -0.3955176704065489 0.0
0.1607501566773852 -0.9607463842454307 0.0
1.3949503170671129 -0.1302964137035951 0.0
1.4955793199117486 0.0123727332419611 0.0
1.4661880178602829 0.0254575987320868 0.0
0.9463305967545942 -0.3805839503593333 0.0
0.5551082057861313 -0.7625301561977098 0.0
0.8851984929402660 -0.3674726020310803 0.0
0.5384619768561857 -0.7491167801162458 0.0
0.3525170212714954 -0.0173373230432717 0.0
0.3197997270751243 -0.0283833355462120 0.0
1.2027146510796971 -0.0553334909638293 0.0
1.1989687400283449 -0.0578248351373739 0.0
0.2448314327469860 -0.2712938254359794 0.0
0.2024509371611043 -0.2677327983946761 0.0
0.0664096733211046 -0.7815847008882535 0.0
0.4285890780092519 -0.6496272463024404 0.0
0.4578427154478840 -0.3860015377911892 0.0
0.4923580320159766 -0.3612273332767878 0.0
1.3457568682890155 -0.0610059425727636 0.0
1.2825938245844482 -0.0997335960932420 0.0
0.9559811961344786 -0.1237774649914665 0.0
0.9738036847984332 -0.1110447158995603 0.0
0.5165776685928867 -1.2654637500729955 0.0
0.5297125048891561 -1.3105511317686978 0.0
0.5536055121899639 -0.0147176732988787 0.0
0.5353883365048984 -0.0211039342199635 0.0
1.2807403463645011 0.0346268923971506 0.0
1.2849167786661615 0.0360121878877123 0.0
0.3742880994835213 -0.6815745177184651 0.0
1.2852090035807235 -0.0395610888630279 0.0
0.6916908150614016 -0.7721004758638919 0.0
0.6624857918733947 -0.3363036909657942 0.0
0.6712956459658130 -0.3591272812454180 0.0
-0.0947083892571745 -0.5504007040801357 0.0
1.1591748744824901 -0.5199819510616062 0.0
0.0793148303914306 -0.4180246294468926 0.0
1.3334603801057543 0.0209700332607253 0.0
1.3369862592658559 0.0222631213544434 0.0
1.3555836269487869 -1.0040152214500198 0.0
1.3644539730497145 -0.0467075167921221 0.0
1.3616228632419887 -0.0529293099590871 0.0
0.2882978912748094 -0.0784162371604561 0.0
0.2550931109615682 -0.0931930059314761 0.0
0.8948088701864612 -0.0116573739486563 0.0
0.9009509589233636 -0.0166737012166136 0.0
1.4884670871203443 -0.7949621165044892 0.0
1.3577290914841686 -0.1563785664144976 0.0
1.1173980201024327 -0.4904509644750062 0.0
1.2859555958490578 -0.0945148291090250 0.0
1.2814749851185123 -0.0807072465417000 0.0
0.5242084406868626 -0.7957245890485968 0.0
0.7248135603386545 -0.6627016943222721 0.0
0.6366099941814725 -0.9031814113312638 0.0
1.4147373750069858 -0.1255814620313127 0.0
0.4861013319596054 -0.5513721628937138 0.0
1.0697389299989026 -0.0393197947926352 0.0
1.0745876238440364 -0.0352710371476161 0.0
1.3046511285152358 -0.1014982693289924 0.0
0.2951895165149491 -0.0358479572246140 0.0
0.2772433667398850 -0.0387519086549529 0.0
0.7873024794462470 -0.6479327939063917 0.0
0.0888768472735126 -0.2566729959358798 0.0
0.4453876200617315 -0.4984231953593047 0.0
0.0489010383222552 -1.1284739446918912 0.0
1.3561490789219188 -0.2411323491604612 0.0
1.1798146381518702 -0.1795423040934877 0.0
1.1771377186701821 -0.1696718076496645 0.0
0.9915078817569262 -0.2611881604851424 0.0
0.5637368302553463 -0.1813907081606174 0.0
0.5855513390546235 -0.1683818743747361 0.0
1.0322838345691603 -0.2549269086525732 0.0
1.0653876418364292 -0.0058373459046402 0.0
1.0609438713919788 -0.0082909045530358 0.0
1.0841078153970125 -0.0816666622680423 0.0
1.0960715412934352 -0.0780460492296624 0.0
0.4518869083717114 -0.0482224484986690 0.0
0.4428564471242125 -0.0495498960137507 0.0
1.0049131477367201 -0.0739126380530888 0.0
1.2615700840873132 -0.2233315185662858 0.0
0.3045392566308880 0.0426311580231451 0.0
0.2724946687640116 0.0333265848815488 0.0
1.3721348872045145 -0.0739089233267083 0.0
1.3816193501858818 -0.0886714492811074 0.0
-0.0894590029757225 -0.9155161869086237 0.0
1.1080221287642880 0.1955687532777423 0.0
1.1141592926341499 0.1919161122350241 0.0
0.3423748291429680 -0.3514663787385936 0.0
0.3182157897735317 -0.3507855035987458 0.0
0.5456120050564158 -0.6666392433958747 0.0
1.0464699895605560 -0.0786050146498022 0.0
1.1420004467237290 -0.2895332877538384 0.0
0.1197849071611101 -0.2009529933980281 0.0
0.3820775734667316 -0.9890441733718400 0.0
0.2395135739991889 -0.6711904688082475 0.0
1.1558155853602099 -0.1701924979871798 0.0
0.8520401378141277 -0.5915726936594120 0.0
1.3511620950464893 -0.0881000471412376 0.0
0.4767116846053126 -0.7530504270222345 0.0
-0.0714114542541063 -0.4082017528304257 0.0
0.8123739019402767 -0.4756507637383832 0.0
-0.0803288932830242 -0.5241765817948359 0.0
0.6231474986494536 -0.6770321974689200 0.0
0.5854574094534583 -0.0186382775437537 0.0
0.5848363481303479 -0.0146001887548944 0.0
0.1790517603942809 -0.1182885666441392 0.0
0.2784296715988243 0.0001222077543759 0.0
0.2454228515935672 -0.0077684279982081 0.0
0.9756342063798326 -0.6070473437783723 0.0
0.7481160389576604 -0.4607811597174353 0.0
0.4709693752775960 -0.7747745392560160 0.0
0.1802528579494005 -0.1101638253035821 0.0
0.9121944724676925 0.1291804116052803 0.0
0.8957388196967120 0.1053921234233155 0.0
0.3845527581861860 -0.1141513521181034 0.0
0.3566989360942797 -0.1269280069151148 0.0
1.3487105206125594 -0.1021881831384851 0.0
1.2371146357445468 -0.3281753338676031 0.0
0.5427849775270629 -0.8060798138812072 0.0
0.6101445577100340 -0.9585668930087444 0.0
0.2165370093330479 -0.3556864254182612 0.0
0.3105857690705642 -1.0055736592454818 0.0
0.2100424241802609 -0.0280610058358748 0.0
0.2296412540313202 -0.0258131005553765 0.0
0.3884619538738341 -0.8054781757078094 0.0
0.8432730816337174 -0.1319160224698943 0.0
0.8293603254079173 -0.1372893778320207 0.0
0.8026429124665969 -0.3189846510021176 0.0
1.2929109826947360 -0.0372621326891399 0.0
0.1624372426179221 -0.5372797434486496 0.0
1.2863909141029961 -0.0373707687421730 0.0
0.7912353765128443 -0.3194526643355300 0.0
0.6562708426188076 -0.0240987184529070 0.0
0.6522334780782413 -0.0263854532873939 0.0
0.9690628495684617 -0.0388822969168386 0.0
1.2249619753112952 -0.3526650014781411 0.0
1.0993348596638792 -0.3477793034302476 0.0
0.4747435681151588 -0.6609329820623396 0.0
1.4282884288965207 -0.0287040606284394 0.0
1.4277248270648260 -0.0261256548374316 0.0
0.3630712433085426 -0.2163702689123836 0.0
0.3343835919315277 -0.2352409140285878 0.0
0.8347518426333246 -0.1111916148399797 0.0
0.8448221975879274 -0.1262703791471617 0.0
1.3616512881870229 -0.0948306540697338 0.0
0.8008093873093886 -0.1334486781880726 0.0
0.7738583416453076 -0.0713843988344416 0.0
0.7748652834532136 -0.0767967169743367 0.0
1.2299356345204211 0.0287416321367033 0.0
1.1947952558262729 0.0227092138012989 0.0
0.7449291606382227 0.0382351788942140 0.0
0.7525553344975211 0.0365410270241315 0.0
1.3439414431989534 -0.0795618750115792 0.0
0.4804731196025774 -0.0561404114351591 0.0
0.4840167607128797 -0.0533834684993187 0.0
0.4860214204746118 -0.1150607981800282 0.0
0.5086865444010371 -0.1083342462616923 0.0
0.7986435482680704 0.0500957265784437 0.0
0.8007599407120944 0.0790065860321092 0.0
-0.2233221580428933 -0.5492062049779673 0.0
1.1941480383866099 -0.6982666166089043 0.0
1.1949359087408111 -0.7635533837476972 0.0
0.5717454823287582 -0.4476414784732811 0.0
0.6152860720260958 -0.3931394219246428 0.0
1.0524071779930049 -0.3701431629825723 0.0
0.7306334453590873 0.0029181556253935 0.0
0.7679269056488500 -0.0596851308700221 0.0
0.6469914589644580 -0.1019558551973919 0.0
0.6444782700654901 -0.1009965738335456 0.0
0.5393621246297515 -0.8553339671071210 0.0
0.2336706068542239 -0.0312049781394971 0.0
0.2249751495403533 -0.0323322938169632 0.0
0.6965683205107520 -1.2549336939564353 0.0
0.7566677008814356 -0.0882935854109279 0.0
0.7546893785849730 -0.0910404917510920 0.0
1.3041148085157936 -0.0846908495341981 0.0
1.3010309427683802 -0.0824607210854588 0.0
0.5015056373229513 -0.2460656043928301 0.0
0.4675545190962527 -0.2574086590374650 0.0
-0.0708435298057692 -0.2629202273844632 0.0
1.3341060987979192 -0.2411774496392688 0.0
0.7224647056720912 -1.3758674904052557 0.0
0.1874909004298545 -0.3907169152653709 0.0
0.4099071853432363 -0.4696531899843258 0.0
1.0027770216997101 -1.0914605718954633 0.0
0.7606165039339960 -1.0005182720433865 0.0
1.3974845892706620 -0.0715867629728806 0.0
1.4053875860822060 -0.0887657063430692 0.0
0.5222799921538372 -0.9883383137084899 0.0
0.9229241181331600 -0.2164518531133945 0.0
0.9019292747778916 -0.2042210006424517 0.0
0.7118177045409925 -0.1287867594115845 0.0
0.6976543730251870 -0.1371831744644905 0.0
1.3849289879117792 -0.0910367266900883 0.0
0.7797054749736738 -0.8031262607027939 0.0
0.3200633051384497 -0.7926266083428506 0.0
1.1073910409364014 -0.1733526788361615 0.0
1.4430608193058387 -0.0414040545277727 0.0
1.4510603196894720 -0.0437763818214582 0.0
1.1245534383921110 -0.1578499319950475 0.0
0.2615866957113172 -0.0001647366852633 0.0
0.2747148740838005 0.0031580636998187 0.0
0.6275492086976098 0.0753806264487153 0.0
1.1940628489257572 -0.1332732232834220 0.0
1.3641685157255765 -0.0590584340814842 0.0
0.3853683476009751 -0.5841991522986651 0.0
0.3071236278051392 -0.1627775318889062 0.0
0.2720689920111444 -0.1746879296220480 0.0
0.4352295705750056 -0.0387747732792087 0.0
0.4069366537412334 -0.0479064618621725 0.0
0.3763515316730908 -0.4615791277567096 0.0
-0.1416293923412788 -0.2299481195508858 0.0
0.7014252292154505 -0.5962153088059351 0.0
0.6106031112121563 0.0250266641239668 0.0
0.6008088028509811 0.0156449246651877 0.0
1.4133306545567521 -0.0141553083215912 0.0
1.4097351382185930 -0.0186564799561037 0.0
0.7651234748898607 -0.9102740426479845 0.0
1.2283152039602634 -0.2207736042631822 0.0
0.6099325059536521 -0.0859330118966973 0.0
0.2487156465132599 -0.0433082487376106 0.0
0.2102813101985354 -0.0484304687138252 0.0
0.3569666442889857 -0.5753914721585361 0.0
0.1043453479177620 -0.1549080766076409 0.0
0.5723250872243358 -0.5863209595837844 0.0
1.2166133003908375 -0.1258494076694867 0.0
0.5901339858189361 -0.2938829690856082 0.0
0.5642887147900172 -0.3161787094839403 0.0
0.5168113011878394 -0.7952354147147646 0.0
0.7546497708482394 0.0775294272982140 0.0
0.7561760415072466 0.0783346951042863 0.0
0.6274956514889326 -0.7940346629864153 0.0
0.0860994658884772 -0.7267620719593070 0.0
0.1251223931386895 -0.5047838276918910 0.0
0.0144830783074527 -0.1515638736181671 0.0
0.8603988980129073 0.0545341166612733 0.0
0.8349897771692267 0.0756039343278323 0.0
0.8496546537125693 -0.0524953600958602 0.0
0.8298626803802750 -0.0672073285054598 0.0
0.2691739383894357 -0.6547838200004463 0.0
1.0852501005894182 -0.2447211532399058 0.0
0.6201824844543642 -0.6787873985339767 0.0
1.0590058120172980 -0.6453976061397007 0.0
0.7613960866909253 0.0649050182589496 0.0
1.4088016304031661 -0.0326401178653002 0.0
1.4141396420414019 -0.0318300836590557 0.0
1.0739663118947091 -1.1704207009669887 0.0
0.5873873063497088 -0.7825893929010628 0.0
1.4724684506848518 -0.2635629437186419 0.0
0.5812174199596672 -0.8555791645583003 0.0
-0.3501380946404430 -0.9012495287542794 0.0
1.3578943296352570 -0.2107732689657766 0.0
0.3144493335107542 -1.1979741068628800 0.0
1.3146389064881940 -0.1621688027652614 0.0
0.5524528897966591 -0.0150808957661951 0.0
1.4643150984554005 -0.0256324029044117 0.0
1.4503252815245213 -0.0395618268024743 0.0
0.1647705556082511 0.0301373504644585 0.0
0.1892058859393456 0.0342952127580504 0.0
0.6517884004543779 0.0525100758307222 0.0
0.5709829603224907 -0.1116104796275183 0.0
0.1123402457988814 0.0078362729995570 0.0
0.1294373278041852 0.0107783621583120 0.0
0.6435924827105300 -0.0530269082484086 0.0
0.5332466340249282 -0.5849702814598421 0.0
0.6409648264160253 -0.0237865521142295 0.0
0.6425487592511262 -0.0220879952974381 0.0
0.6817949542059365 -0.2314285305621987 0.0
0.7095942409707715 -0.2140714561752743 0.0
0.5257580072047944 -0.4892930348202669 0.0
0.3986120490272311 -0.2964483869681112 0.0
0.4295165156729016 -0.2939842112200855 0.0
0.2814184087372930 0.0378133858709537 0.0
0.2472951429691408 0.0330846964800565 0.0
1.6027769186960246 -0.6439677473207767 0.0
0.9896024134991106 -0.5139589302955035 0.0
0.7130796077224227 -0.4263148353582320 0.0
1.1792323461593883 -0.6862990773542406 0.0
