# vtk DataFile Version 3.0
LucasCarvalhoTCC Results
ASCII

DATASET POLYDATA
FIELD FieldData 1
TIME 1 1 double
5.6000000000000005

POINTS 380 float
0.0 2.0 0.0
2.0 2.0 0.0
3.0 2.0 0.0
3.0 1.0 0.0
5.0 1.0 0.0
5.0 0.0 0.0
3.0 0.0 0.0
2.0 0.0 0.0
2.0 1.0 0.0
0.0 1.0 0.0
0.2643114543905713 2.0 0.0
0.5169795502969444 2.0 0.0
0.7585171880292413 2.0 0.0
0.9894145836600268 2.0 0.0
1.210140497826619 2.0 0.0
1.421143008568911 2.0 0.0
1.622850459538253 2.0 0.0
1.815672303789548 2.0 0.0
2.188552664328277 2.0 0.0
2.359329284173903 2.0 0.0
2.514005696104645 2.0 0.0
2.654099788331341 2.0 0.0
2.780986322989182 2.0 0.0
2.895910470953052 2.0 0.0
3.0 1.9 0.0
3.0 1.8 0.0
3.0 1.7 0.0
3.0 1.6 0.0
3.0 1.5 0.0
3.0 1.4 0.0
3.0 1.3 0.0
3.0 1.2 0.0
3.0 1.1 0.0
3.105031513416626 1.0 0.0
3.221094637894669 1.0 0.0
3.349348047908936 1.0 0.0
3.491072094154001 1.0 0.0
3.647681638607018 1.0 0.0
3.820740106959136 1.0 0.0
4.011975186625977 1.0 0.0
4.223295996958671 1.0 0.0
4.456812096249916 1.0 0.0
4.714854728122151 1.0 0.0
5.0 0.7500000000000003 0.0
5.0 0.5000000000000012 0.0
5.0 0.2500000000000011 0.0
4.735688545609428 0.0 0.0
4.483020449703056 0.0 0.0
4.241482811970759 0.0 0.0
4.010585416339973 0.0 0.0
3.789859502173381 0.0 0.0
3.578856991431089 0.0 0.0
3.377149540461747 0.0 0.0
3.184327696210452 0.0 0.0
2.811447335671723 0.0 0.0
2.640670715826097 0.0 0.0
2.485994303895355 0.0 0.0
2.345900211668659 0.0 0.0
2.219013677010818 0.0 0.0
2.104089529046948 0.0 0.0
2.0 0.1 0.0
2.0 0.2 0.0
2.0 0.3 0.0
2.0 0.4 0.0
2.0 0.5 0.0
2.0 0.6 0.0
2.0 0.7 0.0
2.0 0.8 0.0
2.0 0.9 0.0
1.894968486583374 1.0 0.0
1.77890536210533 1.0 0.0
1.650651952091063 1.0 0.0
1.508927905845999 1.0 0.0
1.352318361392982 1.0 0.0
1.179259893040864 1.0 0.0
0.9880248133740233 1.0 0.0
0.7767040030413299 1.0 0.0
0.5431879037500846 1.0 0.0
0.2851452718778493 1.0 0.0
0.0 1.25 0.0
0.0 1.499999999999999 0.0
0.0 1.749999999999999 0.0
2.426045913985508 1.348290599604586 0.0
2.562221387987337 0.6558377602558874 0.0
1.966703786708101 1.492474555319359 0.0
3.033486484223225 0.4973568340887861 0.0
2.371610747520728 0.97814425147097 0.0
2.648098402859118 1.648016516253387 0.0
2.351901597140882 0.3519834837466129 0.0
2.694321138879857 1.061432730999581 0.0
1.441644339445862 1.496646809257773 0.0
3.554831642064292 0.501744031268764 0.0
2.720742750697982 1.350625068836981 0.0
2.282037541072919 0.639419348257894 0.0
2.813390610951134 0.7911761792959446 0.0
2.310700631729327 1.679155452525512 0.0
2.688751528716965 0.3206838402855661 0.0
2.211165393176843 1.213708510063781 0.0
0.9449004170027906 1.496357611130017 0.0
4.05509958299721 0.5036423888699835 0.0
3.025501657200047 0.7528388163714679 0.0
1.714778657098197 1.300039655550584 0.0
1.958264922640818 1.245975101752485 0.0
2.206386339371814 0.8500000000000001 0.0
3.336706349465057 0.704398544338507 0.0
4.529565928894533 0.555233644424822 0.0
0.4704340711054673 1.444766355575178 0.0
2.186983355180128 1.461437746541105 0.0
2.553715879020142 0.8859594914241276 0.0
2.782212276375736 0.5474565156445963 0.0
2.500206140967324 1.148517546040804 0.0
2.803373162317882 1.783880361314082 0.0
2.196626837682118 0.2161196386859174 0.0
1.735623536927746 1.664129737658362 0.0
3.268802735993943 0.3358439745752063 0.0
2.799454045372581 1.51553500056848 0.0
2.18762015375897 0.4992029885790829 0.0
2.813478812948685 1.18678600527921 0.0
2.400994471757771 0.7612313552289275 0.0
2.405444563947088 0.5311203927463914 0.0
2.583195945356847 1.473216966241769 0.0
3.734210872783077 0.7260959952797862 0.0
1.256500988572085 1.265010492624376 0.0
2.938353069321001 0.2909212553641365 0.0
2.061245308362322 1.709221243241415 0.0
2.182240881432738 1.001025052084926 0.0
2.830214026212788 0.9796244234047695 0.0
2.49023894829247 1.787687811117195 0.0
2.50976105170753 0.2123121888828049 0.0
1.194806886820808 1.686899295332255 0.0
3.805193113179192 0.3131007046677451 0.0
2.655039231860651 1.208917360245127 0.0
1.493530449555064 1.231198576616718 0.0
2.345622594939228 1.152685186835846 0.0
2.41380980106708 1.521513100394759 0.0
2.58979513084283 0.4863225267637531 0.0
2.135472648094309 0.7246460081196311 0.0
2.912574128751924 0.660128736186259 0.0
2.866043013605144 1.353074765380587 0.0
0.6928324624395237 1.69170809873467 0.0
4.307167537560476 0.3082919012653306 0.0
2.071506740582853 1.128535871978767 0.0
0.6831902494895832 1.302725441792086 0.0
4.316809750510417 0.6972745582079137 0.0
2.85534466702333 1.667491236848871 0.0
2.141886244104996 0.336139391754002 0.0
1.447743165823209 1.773242752731258 0.0
3.554386585610856 0.224002072703283 0.0
2.96485662756902 0.8593908564801968 0.0
3.240425509636175 0.8099760775594669 0.0
2.088410584923666 1.339747073830609 0.0
3.277530767974837 0.4939020807639749 0.0
3.534313505233912 0.7935179117986669 0.0
2.546683861402325 1.011736398479819 0.0
2.664793655038503 0.758149595673951 0.0
2.7009922066801 0.9086021996324817 0.0
1.844652141496971 1.153158997353228 0.0
2.575910747861113 1.316876286520138 0.0
3.994328863599566 0.7454319923658932 0.0
1.005671136400434 1.254568007634107 0.0
1.722192091537185 1.482888323667831 0.0
2.644751416415203 1.850904811198953 0.0
2.355248583584797 0.1490951888010467 0.0
2.31560379269905 1.25706851182614 0.0
2.129697972466254 0.5864366202645266 0.0
2.417220568140766 0.6397160301847872 0.0
2.867945749403976 1.069821281672812 0.0
3.182303046124178 0.6739667261124369 0.0
4.702774994215813 0.2953677284017739 0.0
0.2972250057841874 1.704632271598226 0.0
2.90043748182062 0.4316738443013928 0.0
2.486081387366873 0.3514585853722887 0.0
2.513918612633127 1.648541414627711 0.0
2.086778258621772 1.563111332603502 0.0
4.025359850459486 0.2638518716814435 0.0
0.9746401495405139 1.736148128318556 0.0
3.116389458098145 0.2933651166122753 0.0
1.885410353788165 1.707062521230272 0.0
2.327134732627959 1.833634230002939 0.0
2.672865267372041 0.1663657699970617 0.0
1.675899428547673 1.15999616666306 0.0
1.858973331615206 1.373382723203102 0.0
2.860266039499884 1.862282581689995 0.0
2.139733960500116 0.1377174183100045 0.0
1.257473476073173 1.479081588926576 0.0
3.731624273377778 0.5208146070195914 0.0
2.115038607594509 0.9238947313642476 0.0
0.2734661728051435 1.270630989444945 0.0
4.726533827194856 0.7293690105550548 0.0
2.699965708650878 1.465007479364728 0.0
2.298365077320068 0.5341069340550768 0.0
2.510583000486659 0.7602856732279889 0.0
3.370667741214912 0.8392397884376295 0.0
3.067541604254986 0.8806352314757129 0.0
2.90073732483139 1.443475210354718 0.0
2.264071206758208 0.9501943312745662 0.0
2.278663096491763 0.7489636980394857 0.0
1.952511813454414 1.110576661474517 0.0
2.744352083917141 0.687787375233183 0.0
1.566252941493004 1.383661493752942 0.0
2.437660520624072 0.8703573012735125 0.0
2.904826075218911 1.261819176983655 0.0
2.305967018083784 1.391390767447104 0.0
2.105729326736999 0.8145314366030645 0.0
2.428967188976762 1.236966721617647 0.0
3.060475488407204 0.1442825789852263 0.0
1.934979199332455 1.852811714602595 0.0
2.095475260770118 0.4348597444661615 0.0
2.914777085426361 1.759093454264707 0.0
2.084827330449114 0.2414252069642749 0.0
2.207128288422204 1.315477221019454 0.0
2.658751426439581 0.5773232450959589 0.0
2.612380011409894 1.114144853433198 0.0
2.897371573983894 1.569769587751228 0.0
0.5001010519014215 1.226918930408543 0.0
4.499898948098578 0.7730810695914568 0.0
2.753086810589338 1.690362801865437 0.0
2.246793053318422 0.3097947118702842 0.0
3.391580469276819 0.5673489147038103 0.0
3.035026488699165 0.6179797538177514 0.0
2.449819864663089 1.055109427275025 0.0
2.27653308928065 1.054384468582349 0.0
2.794675693196835 1.418106589018447 0.0
2.778866980525137 1.083577784614141 0.0
2.244522876020972 0.1116738824400324 0.0
2.755477123979027 1.888326117559968 0.0
2.323887028942199 0.8604475039748537 0.0
2.204900210979926 1.747483509451062 0.0
2.794853185869193 0.2526222191943996 0.0
2.320767315286541 1.530441598510029 0.0
1.550828143561484 1.606851581022188 0.0
2.796593663741882 1.288013595743853 0.0
3.436143660897262 0.3940652474171653 0.0
2.682379445750112 0.4493639922429763 0.0
3.242313228541417 0.154845696987206 0.0
1.75965289115187 1.844031320058407 0.0
1.3642341383496 1.159631408929946 0.0
1.980047380836635 1.36362624976796 0.0
2.070303834520089 1.451946835577872 0.0
2.55866460451515 1.229901920133861 0.0
4.26844523535139 0.499131154814159 0.0
0.7315547646486098 1.500868845185841 0.0
2.716116351489881 1.570657861970705 0.0
2.283245236086922 0.4299499540566049 0.0
4.50573905238033 0.204273435313806 0.0
0.4942609476196695 1.795726564686194 0.0
3.605070352001925 0.644396355247622 0.0
3.171946621948212 0.9019117497969773 0.0
3.40309695214227 0.1789624633199048 0.0
1.59690304785773 1.821037536680094 0.0
4.776800700354217 0.5074282293075529 0.0
0.2231992996457826 1.492571770692447 0.0
1.293020597407515 1.839015256431498 0.0
3.706979402592485 0.1609847435685022 0.0
1.398281395597716 1.351857389185529 0.0
2.880181082677912 0.1378504756446906 0.0
2.119200639021148 1.861833157788504 0.0
2.408646939494887 0.2452196658480275 0.0
2.591353060505113 1.754780334151973 0.0
1.146570081566377 1.160946826906423 0.0
3.853429918433624 0.8390531730935771 0.0
2.920846657438631 1.149071660619678 0.0
2.101132283911678 1.226382957654413 0.0
2.903672483971366 0.7774662795474147 0.0
2.516386521935266 0.571665255016536 0.0
2.475412447847437 1.444413760085193 0.0
2.903041575637174 0.5510905120278109 0.0
3.666476299189054 0.8553176740217776 0.0
1.558137053653031 1.119389262041809 0.0
3.867595456948903 0.1475874639835382 0.0
1.132404543051097 1.852412536016462 0.0
2.635017655944937 0.9730281566682446 0.0
2.436667490139274 1.901171080200935 0.0
2.563332509860726 0.09882891979906516 0.0
2.091598337090247 1.040423151014485 0.0
0.8316881289508771 1.172977685150089 0.0
4.168311871049123 0.827022314849911 0.0
3.648565743761548 0.3681286963687066 0.0
1.355037313653319 1.636865536133179 0.0
2.58412781071005 1.576586299624529 0.0
2.41587218928995 0.4234137003754711 0.0
2.083716468691946 0.6634832154935376 0.0
1.843942294678346 1.256771801786488 0.0
[...]
POINT_DATA 380

VECTORS Velocity float
0.0000000000000000 0.0000000000000000 0.0
0.0000000000000000 0.0000000000000000 0.0
0.0000000000000000 0.0000000000000000 0.0
0.0000000000000000 0.0000000000000000 0.0
0.0000000000000000 0.0000000000000000 0.0
0.9186850982196247 -0.1330574577932646 0.0
0.0000000000000000 0.0000000000000000 0.0
0.0000000000000000 0.0000000000000000 0.0
0.0000000000000000 0.0000000000000000 0.0
0.0000000000000000 0.0000000000000000 0.0
0.0000000000000000 0.0000000000000000 0.0
0.0000000000000000 0.0000000000000000 0.0
0.0000000000000000 0.0000000000000000 0.0
0.0000000000000000 0.0000000000000000 0.0
0.0000000000000000 0.0000000000000000 0.0
0.0000000000000000 0.0000000000000000 0.0
0.0000000000000000 0.0000000000000000 0.0
0.0000000000000000 0.0000000000000000 0.0
0.0000000000000000 0.0000000000000000 0.0
0.0000000000000000 0.0000000000000000 0.0
0.0000000000000000 0.0000000000000000 0.0
0.0000000000000000 0.0000000000000000 0.0
0.0000000000000000 0.0000000000000000 0.0
0.0000000000000000 0.0000000000000000 0.0
0.0000000000000000 0.0000000000000000 0.0
0.0000000000000000 0.0000000000000000 0.0
0.0000000000000000 0.0000000000000000 0.0
0.0000000000000000 0.0000000000000000 0.0
0.0000000000000000 0.0000000000000000 0.0
0.0000000000000000 0.0000000000000000 0.0
0.0000000000000000 0.0000000000000000 0.0
0.0000000000000000 0.0000000000000000 0.0
0.0000000000000000 0.0000000000000000 0.0
0.0000000000000000 0.0000000000000000 0.0
0.0000000000000000 0.0000000000000000 0.0
0.0000000000000000 0.0000000000000000 0.0
0.0000000000000000 0.0000000000000000 0.0
0.0000000000000000 0.0000000000000000 0.0
0.0000000000000000 0.0000000000000000 0.0
0.0000000000000000 0.0000000000000000 0.0
0.0000000000000000 0.0000000000000000 0.0
0.0000000000000000 0.0000000000000000 0.0
0.0000000000000000 0.0000000000000000 0.0
1.1551781239162797 0.3642272376460267 0.0
0.7957331348178047 0.0634499395240153 0.0
1.1395836623775661 -0.2964897020275199 0.0
0.0000000000000000 0.0000000000000000 0.0
0.0000000000000000 0.0000000000000000 0.0
0.0000000000000000 0.0000000000000000 0.0
0.0000000000000000 0.0000000000000000 0.0
0.0000000000000000 0.0000000000000000 0.0
0.0000000000000000 0.0000000000000000 0.0
0.0000000000000000 0.0000000000000000 0.0
0.0000000000000000 0.0000000000000000 0.0
0.0000000000000000 0.0000000000000000 0.0
0.0000000000000000 0.0000000000000000 0.0
0.0000000000000000 0.0000000000000000 0.0
0.0000000000000000 0.0000000000000000 0.0
0.0000000000000000 0.0000000000000000 0.0
0.0000000000000000 0.0000000000000000 0.0
0.0000000000000000 0.0000000000000000 0.0
0.0000000000000000 0.0000000000000000 0.0
0.0000000000000000 0.0000000000000000 0.0
0.0000000000000000 0.0000000000000000 0.0
0.0000000000000000 0.0000000000000000 0.0
0.0000000000000000 0.0000000000000000 0.0
0.0000000000000000 0.0000000000000000 0.0
0.0000000000000000 0.0000000000000000 0.0
0.0000000000000000 0.0000000000000000 0.0
0.0000000000000000 0.0000000000000000 0.0
0.0000000000000000 0.0000000000000000 0.0
0.0000000000000000 0.0000000000000000 0.0
0.0000000000000000 0.0000000000000000 0.0
0.0000000000000000 0.0000000000000000 0.0
0.0000000000000000 0.0000000000000000 0.0
0.0000000000000000 0.0000000000000000 0.0
0.0000000000000000 0.0000000000000000 0.0
0.0000000000000000 0.0000000000000000 0.0
0.0000000000000000 0.0000000000000000 0.0
1.0000000000000000 0.0000000000000000 0.0
1.0000000000000000 0.0000000000000000 0.0
1.0000000000000000 0.0000000000000000 0.0
0.9301899988845658 -0.8462835521575065 0.0
0.8134433844375919 -0.8730954351660991 0.0
1.5195387261728275 -0.2544755923234034 0.0
1.4617273054204336 -0.2506986687128950 0.0
0.5940412942756444 -1.2052329110231343 0.0
0.2572106346562304 -0.2066548790409598 0.0
0.2161197952159149 -0.1933847945371657 0.0
0.5785207513414448 -1.2240440870870444 0.0
1.5745046373753677 -0.0759790862334108 0.0
1.6112605074887678 -0.1202306123577048 0.0
0.2724584668092697 -0.6857940064776632 0.0
0.2508402993316038 -0.5953384638272298 0.0
1.1686961042993993 -0.9883905751368363 0.0
0.7035114350525367 -0.2087809858489958 0.0
0.6582939306859944 -0.1957202258697652 0.0
1.1621941240268356 -0.8988054197891123 0.0
1.6001587705569416 -0.0197004086888943 0.0
1.5975331683581693 -0.0092428824119805 0.0
1.4941930460146937 -0.3461614089026435 0.0
1.4993867719781724 -0.0566400423114490 0.0
1.4333209369545683 -0.3060594786512492 0.0
0.2592521126553664 -0.8090229711300811 0.0
1.5180754694978806 -0.0669193390179243 0.0
1.5836167248774575 0.0097548048307786 0.0
1.5334862445147732 0.0359719585549746 0.0
1.2942029183656500 -0.5017479057978103 0.0
0.7048293454346600 -1.2199607353274846 0.0
1.1915597527270505 -0.4613541686410517 0.0
0.6931091810366974 -1.2300390205368861 0.0
0.0480529719207265 -0.0640475880207113 0.0
0.0391784520705328 -0.0538607643611616 0.0
1.1917639210809265 -0.0807067001427485 0.0
1.1132743714874453 -0.0923725825083600 0.0
0.1034026549281079 -0.3108979586448224 0.0
0.0734360012476282 -0.2470541162947305 0.0
0.1742569519801726 -0.7290985834626528 0.0
0.4986631311019830 -0.9779055529946522 0.0
0.4499814358413157 -0.5607992782404428 0.0
0.5243144396451019 -0.5729816183023544 0.0
1.3931228507923528 -0.0126854873586330 0.0
1.3077245370541979 -0.0808525801632246 0.0
0.8071675779553408 -0.1297067492164643 0.0
0.8792172273717530 -0.1318188592791638 0.0
0.5538694595184136 -0.9678872321573350 0.0
0.6250572165040907 -1.0791226152665006 0.0
0.2916081975815664 -0.0365521622072224 0.0
0.2667808690040276 -0.0408658251802132 0.0
1.2771147552482807 0.0116959936943635 0.0
1.2777260131438770 0.0074479348842256 0.0
0.4690371493832379 -1.0626410524032106 0.0
1.2567910222327265 0.0020854129605990 0.0
0.8882221227232781 -1.1054004842644007 0.0
0.7867736455253040 -0.4933757196479315 0.0
0.7944352522033596 -0.5354481947394685 0.0
0.0316161000780809 -0.3417492047507480 0.0
1.5121254530288326 -0.5417077394728400 0.0
0.0638778294258469 -0.3723068092873375 0.0
1.3446612142472147 0.0064297548848458 0.0
1.3451256913182121 0.0149050294018889 0.0
1.0896383173609816 -0.7278092474941887 0.0
1.3761524957528857 -0.0384244731930875 0.0
1.3734601994901634 -0.0565240808821217 0.0
0.0403128068448213 -0.1082689514562289 0.0
0.0349597036096496 -0.0895819475466708 0.0
0.7915233713338010 -0.0085507866752930 0.0
0.7740800938928022 -0.0274938540531517 0.0
1.2360592722468238 -0.5561912226036172 0.0
1.2449731546106830 -0.0996798133158942 0.0
1.4532373984734321 -0.5520074647254403 0.0
1.5356272165146838 -0.0925819024600834 0.0
1.2096871487813006 -0.0649946969221879 0.0
0.6712381674205479 -1.2857800311128065 0.0
0.9564937819049052 -0.9867247181690805 0.0
0.8138957902939462 -1.2478681546585091 0.0
1.0662825696251681 -0.0552639751312637 0.0
0.5998567154057708 -0.9192614413005683 0.0
1.0658874855431975 -0.0517982584039217 0.0
1.0678314916130114 -0.0527454990698698 0.0
1.5802201904656576 -0.0647032804483896 0.0
0.0874431180951610 -0.0377714690201556 0.0
0.0760749053272853 -0.0343311523727619 0.0
1.0566866348564059 -0.9223072378093203 0.0
0.0403900060420448 -0.1810094766646820 0.0
0.4854009621323698 -0.7530399518753503 0.0
0.2472090325242982 -0.7565445169487934 0.0
1.5673503141346077 -0.1591041280587801 0.0
1.2290570356546147 -0.2188972238030243 0.0
1.2102407449525212 -0.2003263891122258 0.0
1.1917005977225448 -0.2692497197696581 0.0
0.3964112474074689 -0.2286426996103267 0.0
0.4377777476025111 -0.2262173993265399 0.0
1.2762760644427222 -0.2946300096019848 0.0
1.0451109212365390 -0.0267419470274977 0.0
1.0429261792303792 -0.0275678282910140 0.0
0.9369235327690919 -0.1125345710667436 0.0
1.0146386038257800 -0.1169171434788435 0.0
0.2699887978472317 -0.0542672422771144 0.0
0.2563110589740648 -0.0504982469167316 0.0
0.8340630051273442 -0.0179363011494220 0.0
1.5837104190730891 -0.1469251322461158 0.0
0.0073443341582147 -0.0176822155027911 0.0
0.0061212530663015 -0.0142190998661729 0.0
1.5373006985928395 -0.0975692112861903 0.0
1.5699474637899260 -0.1294115229242321 0.0
0.1408441273339903 -0.4754163853028954 0.0
1.0959923558129434 0.2306261086188866 0.0
1.0936290892776543 0.2311042540759488 0.0
0.2700855785259651 -0.5058520688519427 0.0
0.2245602469875308 -0.4283064351756536 0.0
0.6834917322204245 -1.0737405105164985 0.0
0.9325941139467318 -0.0546040245353644 0.0
0.8761149938251956 -0.1736011693631298 0.0
0.0344459024329734 -0.1729799407209168 0.0
0.4718525830682249 -1.0901909530581215 0.0
0.2678142564608033 -0.8179274012944314 0.0
0.7732240273885972 -0.1214725462978339 0.0
1.1675859986109054 -0.8161054328665003 0.0
1.5613563162006074 -0.0476657033363351 0.0
0.5843245777344567 -1.1695663011599966 0.0
0.0316947018267447 -0.3024841081553231 0.0
1.1328403267973022 -0.6885684899842355 0.0
0.0708821326045810 -0.2798197802377365 0.0
0.8269797647329714 -1.0837368509840239 0.0
0.4049243405502426 -0.0213501107846483 0.0
0.4322808476817212 -0.0191375602365237 0.0
0.0330130917599946 -0.0854475634775567 0.0
0.0119561341484697 -0.0299338124563573 0.0
0.0100387360750586 -0.0240665264312906 0.0
1.2976327391959752 -0.7657687752575237 0.0
0.9883806908660490 -0.6736952660928681 0.0
0.6010431333365041 -1.2187254079453929 0.0
0.0221649503278920 -0.1099171497133088 0.0
0.8659806195313843 0.1645796142115031 0.0
0.8386395341928189 0.1312783119528704 0.0
0.1303587226036359 -0.1634567540533514 0.0
0.1091410574031395 -0.1414750381329199 0.0
1.6438050006095533 -0.1224087472395971 0.0
1.6096416601787198 -0.3142934525180243 0.0
0.6821844584995922 -1.2724748354751583 0.0
0.7114611417529264 -1.1297983081572387 0.0
0.1353487055164342 -0.4097122514969682 0.0
0.4231217981077626 -1.0534292158738987 0.0
0.0260902562443579 -0.0228421421190442 0.0
0.0310346906268413 -0.0265287717719416 0.0
0.4605136028021639 -1.0547559287436574 0.0
0.6499310455059666 -0.1403852800922384 0.0
0.6038802953630514 -0.1250927702155955 0.0
1.0047919030843209 -0.4511628833355730 0.0
1.3586937516347632 -0.0288685591683609 0.0
0.1580517670911420 -0.5801276642032436 0.0
1.3012703448227896 -0.0661152586148637 0.0
0.9461394410248251 -0.4267802898799411 0.0
0.5000927264333320 -0.0333075627259430 0.0
0.5290315023676102 -0.0358769805244317 0.0
0.8947694959782857 -0.0192111893247446 0.0
1.5441679846727516 -0.3380815070156173 0.0
1.4799027481516234 -0.4055644486184780 0.0
0.5994273420869550 -1.0987268359262783 0.0
1.6000720559787112 -0.0535704271767240 0.0
1.5899158583927246 -0.0451443398693399 0.0
0.1977225822425274 -0.2968305215116357 0.0
0.1654569639390127 -0.2615073384494047 0.0
0.7800112420518642 -0.1433658086174018 0.0
0.8008391033353798 -0.1598523725365437 0.0
1.5614836212116086 -0.0782292783631298 0.0
0.5603882662789600 -0.0547611074951613 0.0
0.6298882413040896 -0.0793745125539455 0.0
0.6586120566421610 -0.0800473976775520 0.0
1.2611528372174683 0.0575640220723330 0.0
1.2108940976913389 0.0466771838060796 0.0
0.6380775389037325 0.0333237984975056 0.0
0.6381204290092219 0.0299774367629378 0.0
1.4571318481607036 -0.0510470559237884 0.0
0.3092661293612727 -0.0563708959986126 0.0
0.3319161356573138 -0.0610105139686600 0.0
0.2102068010246654 -0.1144124741223844 0.0
0.2357988245724056 -0.1198191615130576 0.0
0.7329933431113057 0.0586104240114406 0.0
0.7342719526573129 0.1056396406031059 0.0
0.0467983911998207 -0.3357038708085607 0.0
1.3139496343479509 -0.6929066459490810 0.0
1.3501636587137027 -0.7192216555014419 0.0
0.6749678024916547 -0.6939467192538329 0.0
0.7832769895497228 -0.6335978854823193 0.0
1.4414866633885688 -0.4211780598634141 0.0
0.6081425516915193 0.0247515159803348 0.0
0.6289490554803899 -0.0153189528704822 0.0
0.5362812616934747 -0.1094164231017818 0.0
0.5386930570146055 -0.1068930431918558 0.0
0.6977875074019407 -1.2898757635554483 0.0
0.0902914507643089 -0.0261725852346465 0.0
0.0831838463313322 -0.0268718406305898 0.0
0.5621040470497024 -0.6953793738506238 0.0
0.6720036859739976 -0.0979490721741222 0.0
0.6704723060377217 -0.1057524929839076 0.0
1.3066607701957236 -0.1416603691123597 0.0
1.3135070374264259 -0.1127728383063022 0.0
0.4468602320676544 -0.3382621777887090 0.0
0.3779546301312888 -0.3295495557449203 0.0
0.0052190557627911 -0.1433768566591842 0.0
1.3650596143139364 -0.1373249825124900 0.0
0.6030113032777338 -0.7616160133018017 0.0
0.1106357194379474 -0.3968720769177662 0.0
0.4346925739101200 -0.7515212521600320 0.0
0.9730324381302771 -0.9385374777625138 0.0
0.9083121279472672 -1.1382202113383872 0.0
1.4974358778920598 -0.0661987534592758 0.0
1.4930068721984686 -0.0971151828103344 0.0
0.6574250736273431 -1.2238326354255709 0.0
1.0534331792161244 -0.2825357595417878 0.0
0.9962399218449668 -0.2312533459959611 0.0
0.4992955215263798 -0.1759392235300756 0.0
0.4721873211360147 -0.1802417451527498 0.0
1.5620739818918261 -0.1092536553125048 0.0
1.0093204863961089 -1.1102643413463100 0.0
0.4215251636905801 -1.0690151973660191 0.0
1.2139207555112299 -0.1675268966467374 0.0
1.5660844113296448 -0.0925570413694583 0.0
1.5756308135306973 -0.0980470230258245 0.0
1.2930415639567328 -0.1693667272201042 0.0
0.0879292278840900 -0.0123063927533829 0.0
0.0980128719420680 -0.0107941831263293 0.0
0.4214227391708438 0.0688050554280527 0.0
1.3633950737202190 -0.1366150596106206 0.0
1.3199505847563617 0.0384608000095069 0.0
0.4449957522992436 -0.9257962724234047 0.0
0.0955892134790980 -0.2162891764152002 0.0
0.0750653897956573 -0.1764702946933654 0.0
0.1347952678094806 -0.0831015938139302 0.0
0.1155782637210400 -0.0742557986658287 0.0
0.3665758563174285 -0.6477851085977949 0.0
0.0115042206561319 -0.1072931413761088 0.0
0.9346511517007641 -0.9079675125016645 0.0
0.5211259426592146 0.0366035176157187 0.0
0.5040352574733825 0.0190525784374889 0.0
1.4812089512596001 -0.0484138051767655 0.0
1.4810675606655812 -0.0599380125071043 0.0
0.9569400062435703 -1.0739790181528475 0.0
1.6069498347613524 -0.1633586188752082 0.0
0.4306712552896489 -0.0487959491801072 0.0
0.0109228412906047 -0.0366415507879419 0.0
0.0072182021443978 -0.0299129459887432 0.0
0.3788630150892591 -0.8099150423485005 0.0
0.0155599287436890 -0.0943701821305310 0.0
0.7413865964629806 -0.9874666405155070 0.0
1.4553473745302774 -0.1365099738328356 0.0
0.6395959790273911 -0.4453501185395389 0.0
0.5864561211709080 -0.4560211664889522 0.0
0.6496341536883152 -1.2570687484869874 0.0
0.6698877801443143 0.0780386583867310 0.0
0.6672662813183808 0.0808050249640208 0.0
0.8113511449044065 -1.2025526803406519 0.0
0.1305767028219472 -0.5692653391802580 0.0
0.1087866149255709 -0.4400869115380369 0.0
0.0099792477575588 -0.1043134635972219 0.0
0.8421316353110276 0.0649328969460385 0.0
0.8047565649604413 0.0969216202316891 0.0
0.8330182867117427 -0.0507522097080741 0.0
0.8045929385680621 -0.0670023670205748 0.0
0.3184589276281090 -0.8742925098406760 0.0
0.6339647503361153 -0.1432800741217019 0.0
0.7978113422491891 -1.0705898202701249 0.0
1.3802486628736379 -0.7746065150348029 0.0
0.5293507349114114 0.0852141048573089 0.0
1.4803627621260878 -0.0122634743966176 0.0
1.4842898504415458 -0.0081655084672365 0.0
1.0387641822183331 -0.9760964188629545 0.0
0.7544826910207187 -1.2217827773837426 0.0
1.3239515329870812 -0.1498111413545034 0.0
0.7251658036826519 -1.2291521761476898 0.0
0.0900797520162252 -0.3760371329117021 0.0
1.1747392893785926 -0.0502537670219554 0.0
0.3747517376529137 -0.8942782529475716 0.0
1.6569732081129818 -0.0891462185031479 0.0
0.4124196311781809 -0.0054222359749010 0.0
1.5813593026332722 -0.0860486178426983 0.0
1.5503911177166181 -0.0992809109907791 0.0
-0.0067580418771174 -0.0013899798529046 0.0
-0.0081212105225893 -0.0019089293160894 0.0
0.5347318330714499 0.0430441112618900 0.0
0.3396657848126706 -0.0414048683946144 0.0
-0.0036983263441696 -0.0053891533633511 0.0
-0.0040799551310172 -0.0065915873132390 0.0
0.5570163868621035 -0.0346578871779042 0.0
0.6467669517412499 -0.9283936696976589 0.0
0.5591487083910209 -0.0341172527622460 0.0
0.5533753493891697 -0.0270371346794501 0.0
0.6768815701612813 -0.3331349752907758 0.0
0.7359742761012121 -0.3312253489185522 0.0
0.6466389448744063 -0.8155147485286061 0.0
0.2843289450323382 -0.3840396597752337 0.0
0.3349320053702904 -0.4360736711055864 0.0
-0.0087405619233829 -0.0037482839686583 0.0
-0.0071959762376981 -0.0028633723861254 0.0
1.2695981585212182 -0.4509472812045505 0.0
1.3681028722665909 -0.6543776470230543 0.0
0.9565353087057825 -0.6530421109065967 0.0
0.7334856664401642 -0.4165201586303489 0.0
