# vtk DataFile Version 3.0
LucasCarvalhoTCC Results
ASCII

DATASET POLYDATA
FIELD FieldData 1
TIME 1 1 double
2.2

POINTS 380 float
0.0 2.0 0.0
2.0 2.0 0.0
3.0 2.0 0.0
3.0 1.0 0.0
5.0 1.0 0.0
5.0 0.0 0.0
3.0 0.0 0.0
2.0 0.0 0.0
2.0 1.0 0.0
0.0 1.0 0.0
0.2643114543905713 2.0 0.0
0.5169795502969444 2.0 0.0
0.7585171880292413 2.0 0.0
0.9894145836600268 2.0 0.0
1.210140497826619 2.0 0.0
1.421143008568911 2.0 0.0
1.622850459538253 2.0 0.0
1.815672303789548 2.0 0.0
2.188552664328277 2.0 0.0
2.359329284173903 2.0 0.0
2.514005696104645 2.0 0.0
2.654099788331341 2.0 0.0
2.780986322989182 2.0 0.0
2.895910470953052 2.0 0.0
3.0 1.9 0.0
3.0 1.8 0.0
3.0 1.7 0.0
3.0 1.6 0.0
3.0 1.5 0.0
3.0 1.4 0.0
3.0 1.3 0.0
3.0 1.2 0.0
3.0 1.1 0.0
3.105031513416626 1.0 0.0
3.221094637894669 1.0 0.0
3.349348047908936 1.0 0.0
3.491072094154001 1.0 0.0
3.647681638607018 1.0 0.0
3.820740106959136 1.0 0.0
4.011975186625977 1.0 0.0
4.223295996958671 1.0 0.0
4.456812096249916 1.0 0.0
4.714854728122151 1.0 0.0
5.0 0.7500000000000003 0.0
5.0 0.5000000000000012 0.0
5.0 0.2500000000000011 0.0
4.735688545609428 0.0 0.0
4.483020449703056 0.0 0.0
4.241482811970759 0.0 0.0
4.010585416339973 0.0 0.0
3.789859502173381 0.0 0.0
3.578856991431089 0.0 0.0
3.377149540461747 0.0 0.0
3.184327696210452 0.0 0.0
2.811447335671723 0.0 0.0
2.640670715826097 0.0 0.0
2.485994303895355 0.0 0.0
2.345900211668659 0.0 0.0
2.219013677010818 0.0 0.0
2.104089529046948 0.0 0.0
2.0 0.1 0.0
2.0 0.2 0.0
2.0 0.3 0.0
2.0 0.4 0.0
2.0 0.5 0.0
2.0 0.6 0.0
2.0 0.7 0.0
2.0 0.8 0.0
2.0 0.9 0.0
1.894968486583374 1.0 0.0
1.77890536210533 1.0 0.0
1.650651952091063 1.0 0.0
1.508927905845999 1.0 0.0
1.352318361392982 1.0 0.0
1.179259893040864 1.0 0.0
0.9880248133740233 1.0 0.0
0.7767040030413299 1.0 0.0
0.5431879037500846 1.0 0.0
0.2851452718778493 1.0 0.0
0.0 1.25 0.0
0.0 1.499999999999999 0.0
0.0 1.749999999999999 0.0
2.426045913985508 1.348290599604586 0.0
2.562221387987337 0.6558377602558874 0.0
1.966703786708101 1.492474555319359 0.0
3.033486484223225 0.4973568340887861 0.0
2.371610747520728 0.97814425147097 0.0
2.648098402859118 1.648016516253387 0.0
2.351901597140882 0.3519834837466129 0.0
2.694321138879857 1.061432730999581 0.0
1.441644339445862 1.496646809257773 0.0
3.554831642064292 0.501744031268764 0.0
2.720742750697982 1.350625068836981 0.0
2.282037541072919 0.639419348257894 0.0
2.813390610951134 0.7911761792959446 0.0
2.310700631729327 1.679155452525512 0.0
2.688751528716965 0.3206838402855661 0.0
2.211165393176843 1.213708510063781 0.0
0.9449004170027906 1.496357611130017 0.0
4.05509958299721 0.5036423888699835 0.0
3.025501657200047 0.7528388163714679 0.0
1.714778657098197 1.300039655550584 0.0
1.958264922640818 1.245975101752485 0.0
2.206386339371814 0.8500000000000001 0.0
3.336706349465057 0.704398544338507 0.0
4.529565928894533 0.555233644424822 0.0
0.4704340711054673 1.444766355575178 0.0
2.186983355180128 1.461437746541105 0.0
2.553715879020142 0.8859594914241276 0.0
2.782212276375736 0.5474565156445963 0.0
2.500206140967324 1.148517546040804 0.0
2.803373162317882 1.783880361314082 0.0
2.196626837682118 0.2161196386859174 0.0
1.735623536927746 1.664129737658362 0.0
3.268802735993943 0.3358439745752063 0.0
2.799454045372581 1.51553500056848 0.0
2.18762015375897 0.4992029885790829 0.0
2.813478812948685 1.18678600527921 0.0
2.400994471757771 0.7612313552289275 0.0
2.405444563947088 0.5311203927463914 0.0
2.583195945356847 1.473216966241769 0.0
3.734210872783077 0.7260959952797862 0.0
1.256500988572085 1.265010492624376 0.0
2.938353069321001 0.2909212553641365 0.0
2.061245308362322 1.709221243241415 0.0
2.182240881432738 1.001025052084926 0.0
2.830214026212788 0.9796244234047695 0.0
2.49023894829247 1.787687811117195 0.0
2.50976105170753 0.2123121888828049 0.0
1.194806886820808 1.686899295332255 0.0
3.805193113179192 0.3131007046677451 0.0
2.655039231860651 1.208917360245127 0.0
1.493530449555064 1.231198576616718 0.0
2.345622594939228 1.152685186835846 0.0
2.41380980106708 1.521513100394759 0.0
2.58979513084283 0.4863225267637531 0.0
2.135472648094309 0.7246460081196311 0.0
2.912574128751924 0.660128736186259 0.0
2.866043013605144 1.353074765380587 0.0
0.6928324624395237 1.69170809873467 0.0
4.307167537560476 0.3082919012653306 0.0
2.071506740582853 1.128535871978767 0.0
0.6831902494895832 1.302725441792086 0.0
4.316809750510417 0.6972745582079137 0.0
2.85534466702333 1.667491236848871 0.0
2.141886244104996 0.336139391754002 0.0
1.447743165823209 1.773242752731258 0.0
3.554386585610856 0.224002072703283 0.0
2.96485662756902 0.8593908564801968 0.0
3.240425509636175 0.8099760775594669 0.0
2.088410584923666 1.339747073830609 0.0
3.277530767974837 0.4939020807639749 0.0
3.534313505233912 0.7935179117986669 0.0
2.546683861402325 1.011736398479819 0.0
2.664793655038503 0.758149595673951 0.0
2.7009922066801 0.9086021996324817 0.0
1.844652141496971 1.153158997353228 0.0
2.575910747861113 1.316876286520138 0.0
3.994328863599566 0.7454319923658932 0.0
1.005671136400434 1.254568007634107 0.0
1.722192091537185 1.482888323667831 0.0
2.644751416415203 1.850904811198953 0.0
2.355248583584797 0.1490951888010467 0.0
2.31560379269905 1.25706851182614 0.0
2.129697972466254 0.5864366202645266 0.0
2.417220568140766 0.6397160301847872 0.0
2.867945749403976 1.069821281672812 0.0
3.182303046124178 0.6739667261124369 0.0
4.702774994215813 0.2953677284017739 0.0
0.2972250057841874 1.704632271598226 0.0
2.90043748182062 0.4316738443013928 0.0
2.486081387366873 0.3514585853722887 0.0
2.513918612633127 1.648541414627711 0.0
2.086778258621772 1.563111332603502 0.0
4.025359850459486 0.2638518716814435 0.0
0.9746401495405139 1.736148128318556 0.0
3.116389458098145 0.2933651166122753 0.0
1.885410353788165 1.707062521230272 0.0
2.327134732627959 1.833634230002939 0.0
2.672865267372041 0.1663657699970617 0.0
1.675899428547673 1.15999616666306 0.0
1.858973331615206 1.373382723203102 0.0
2.860266039499884 1.862282581689995 0.0
2.139733960500116 0.1377174183100045 0.0
1.257473476073173 1.479081588926576 0.0
3.731624273377778 0.5208146070195914 0.0
2.115038607594509 0.9238947313642476 0.0
0.2734661728051435 1.270630989444945 0.0
4.726533827194856 0.7293690105550548 0.0
2.699965708650878 1.465007479364728 0.0
2.298365077320068 0.5341069340550768 0.0
2.510583000486659 0.7602856732279889 0.0
3.370667741214912 0.8392397884376295 0.0
3.067541604254986 0.8806352314757129 0.0
2.90073732483139 1.443475210354718 0.0
2.264071206758208 0.9501943312745662 0.0
2.278663096491763 0.7489636980394857 0.0
1.952511813454414 1.110576661474517 0.0
2.744352083917141 0.687787375233183 0.0
1.566252941493004 1.383661493752942 0.0
2.437660520624072 0.8703573012735125 0.0
2.904826075218911 1.261819176983655 0.0
2.305967018083784 1.391390767447104 0.0
2.105729326736999 0.8145314366030645 0.0
2.428967188976762 1.236966721617647 0.0
3.060475488407204 0.1442825789852263 0.0
1.934979199332455 1.852811714602595 0.0
2.095475260770118 0.4348597444661615 0.0
2.914777085426361 1.759093454264707 0.0
2.084827330449114 0.2414252069642749 0.0
2.207128288422204 1.315477221019454 0.0
2.658751426439581 0.5773232450959589 0.0
2.612380011409894 1.114144853433198 0.0
2.897371573983894 1.569769587751228 0.0
0.5001010519014215 1.226918930408543 0.0
4.499898948098578 0.7730810695914568 0.0
2.753086810589338 1.690362801865437 0.0
2.246793053318422 0.3097947118702842 0.0
3.391580469276819 0.5673489147038103 0.0
3.035026488699165 0.6179797538177514 0.0
2.449819864663089 1.055109427275025 0.0
2.27653308928065 1.054384468582349 0.0
2.794675693196835 1.418106589018447 0.0
2.778866980525137 1.083577784614141 0.0
2.244522876020972 0.1116738824400324 0.0
2.755477123979027 1.888326117559968 0.0
2.323887028942199 0.8604475039748537 0.0
2.204900210979926 1.747483509451062 0.0
2.794853185869193 0.2526222191943996 0.0
2.320767315286541 1.530441598510029 0.0
1.550828143561484 1.606851581022188 0.0
2.796593663741882 1.288013595743853 0.0
3.436143660897262 0.3940652474171653 0.0
2.682379445750112 0.4493639922429763 0.0
3.242313228541417 0.154845696987206 0.0
1.75965289115187 1.844031320058407 0.0
1.3642341383496 1.159631408929946 0.0
1.980047380836635 1.36362624976796 0.0
2.070303834520089 1.451946835577872 0.0
2.55866460451515 1.229901920133861 0.0
4.26844523535139 0.499131154814159 0.0
0.7315547646486098 1.500868845185841 0.0
2.716116351489881 1.570657861970705 0.0
2.283245236086922 0.4299499540566049 0.0
4.50573905238033 0.204273435313806 0.0
0.4942609476196695 1.795726564686194 0.0
3.605070352001925 0.644396355247622 0.0
3.171946621948212 0.9019117497969773 0.0
3.40309695214227 0.1789624633199048 0.0
1.59690304785773 1.821037536680094 0.0
4.776800700354217 0.5074282293075529 0.0
0.2231992996457826 1.492571770692447 0.0
1.293020597407515 1.839015256431498 0.0
3.706979402592485 0.1609847435685022 0.0
1.398281395597716 1.351857389185529 0.0
2.880181082677912 0.1378504756446906 0.0
2.119200639021148 1.861833157788504 0.0
2.408646939494887 0.2452196658480275 0.0
2.591353060505113 1.754780334151973 0.0
1.146570081566377 1.160946826906423 0.0
3.853429918433624 0.8390531730935771 0.0
2.920846657438631 1.149071660619678 0.0
2.101132283911678 1.226382957654413 0.0
2.903672483971366 0.7774662795474147 0.0
2.516386521935266 0.571665255016536 0.0
2.475412447847437 1.444413760085193 0.0
2.903041575637174 0.5510905120278109 0.0
3.666476299189054 0.8553176740217776 0.0
1.558137053653031 1.119389262041809 0.0
3.867595456948903 0.1475874639835382 0.0
1.132404543051097 1.852412536016462 0.0
2.635017655944937 0.9730281566682446 0.0
2.436667490139274 1.901171080200935 0.0
2.563332509860726 0.09882891979906516 0.0
2.091598337090247 1.040423151014485 0.0
0.8316881289508771 1.172977685150089 0.0
4.168311871049123 0.827022314849911 0.0
3.648565743761548 0.3681286963687066 0.0
1.355037313653319 1.636865536133179 0.0
2.58412781071005 1.576586299624529 0.0
2.41587218928995 0.4234137003754711 0.0
2.083716468691946 0.6634832154935376 0.0
1.843942294678346 1.256771801786488 0.0
[...]
POINT_DATA 380

VECTORS Velocity float
0.0000000000000000 0.0000000000000000 0.0
0.0000000000000000 0.0000000000000000 0.0
0.0000000000000000 0.0000000000000000 0.0
0.0000000000000000 0.0000000000000000 0.0
0.0000000000000000 0.0000000000000000 0.0
0.9186852779138585 -0.1329965615815732 0.0
0.0000000000000000 0.0000000000000000 0.0
0.0000000000000000 0.0000000000000000 0.0
0.0000000000000000 0.0000000000000000 0.0
0.0000000000000000 0.0000000000000000 0.0
0.0000000000000000 0.0000000000000000 0.0
0.0000000000000000 0.0000000000000000 0.0
0.0000000000000000 0.0000000000000000 0.0
0.0000000000000000 0.0000000000000000 0.0
0.0000000000000000 0.0000000000000000 0.0
0.0000000000000000 0.0000000000000000 0.0
0.0000000000000000 0.0000000000000000 0.0
0.0000000000000000 0.0000000000000000 0.0
0.0000000000000000 0.0000000000000000 0.0
0.0000000000000000 0.0000000000000000 0.0
0.0000000000000000 0.0000000000000000 0.0
0.0000000000000000 0.0000000000000000 0.0
0.0000000000000000 0.0000000000000000 0.0
0.0000000000000000 0.0000000000000000 0.0
0.0000000000000000 0.0000000000000000 0.0
0.0000000000000000 0.0000000000000000 0.0
0.0000000000000000 0.0000000000000000 0.0
0.0000000000000000 0.0000000000000000 0.0
0.0000000000000000 0.0000000000000000 0.0
0.0000000000000000 0.0000000000000000 0.0
0.0000000000000000 0.0000000000000000 0.0
0.0000000000000000 0.0000000000000000 0.0
0.0000000000000000 0.0000000000000000 0.0
0.0000000000000000 0.0000000000000000 0.0
0.0000000000000000 0.0000000000000000 0.0
0.0000000000000000 0.0000000000000000 0.0
0.0000000000000000 0.0000000000000000 0.0
0.0000000000000000 0.0000000000000000 0.0
0.0000000000000000 0.0000000000000000 0.0
0.0000000000000000 0.0000000000000000 0.0
0.0000000000000000 0.0000000000000000 0.0
0.0000000000000000 0.0000000000000000 0.0
0.0000000000000000 0.0000000000000000 0.0
1.1553597450684721 0.3634624288395657 0.0
0.7957507938318734 0.0621020947541924 0.0
1.1394114874527597 -0.2972439302768121 0.0
0.0000000000000000 0.0000000000000000 0.0
0.0000000000000000 0.0000000000000000 0.0
0.0000000000000000 0.0000000000000000 0.0
0.0000000000000000 0.0000000000000000 0.0
0.0000000000000000 0.0000000000000000 0.0
0.0000000000000000 0.0000000000000000 0.0
0.0000000000000000 0.0000000000000000 0.0
0.0000000000000000 0.0000000000000000 0.0
0.0000000000000000 0.0000000000000000 0.0
0.0000000000000000 0.0000000000000000 0.0
0.0000000000000000 0.0000000000000000 0.0
0.0000000000000000 0.0000000000000000 0.0
0.0000000000000000 0.0000000000000000 0.0
0.0000000000000000 0.0000000000000000 0.0
0.0000000000000000 0.0000000000000000 0.0
0.0000000000000000 0.0000000000000000 0.0
0.0000000000000000 0.0000000000000000 0.0
0.0000000000000000 0.0000000000000000 0.0
0.0000000000000000 0.0000000000000000 0.0
0.0000000000000000 0.0000000000000000 0.0
0.0000000000000000 0.0000000000000000 0.0
0.0000000000000000 0.0000000000000000 0.0
0.0000000000000000 0.0000000000000000 0.0
0.0000000000000000 0.0000000000000000 0.0
0.0000000000000000 0.0000000000000000 0.0
0.0000000000000000 0.0000000000000000 0.0
0.0000000000000000 0.0000000000000000 0.0
0.0000000000000000 0.0000000000000000 0.0
0.0000000000000000 0.0000000000000000 0.0
0.0000000000000000 0.0000000000000000 0.0
0.0000000000000000 0.0000000000000000 0.0
0.0000000000000000 0.0000000000000000 0.0
0.0000000000000000 0.0000000000000000 0.0
1.0000000000000000 0.0000000000000000 0.0
1.0000000000000000 0.0000000000000000 0.0
1.0000000000000000 0.0000000000000000 0.0
0.8605837793443817 -0.7430449233277148 0.0
0.7611050006759236 -0.7541546188116953 0.0
1.4800268934310268 -0.2590214252099475 0.0
1.4209124052955384 -0.2585739506017605 0.0
0.5716700231129840 -1.1418034312887164 0.0
0.3268929758772935 -0.2010575597374011 0.0
0.2920068435425281 -0.2013340981280257 0.0
0.5539760754035000 -1.1789041488215752 0.0
1.5710829260659949 -0.0806023959749473 0.0
1.6060214789514231 -0.1142799557799151 0.0
0.2791018790602643 -0.6986244390633589 0.0
0.2591692399253671 -0.6486395903703271 0.0
1.1246169947966038 -1.0043392436395715 0.0
0.7186389373354101 -0.1828230653055069 0.0
0.6927950289344373 -0.1739179395261799 0.0
1.1304342144368931 -0.9088178759443594 0.0
1.5999133622712185 -0.0171300711051725 0.0
1.5973578438516305 -0.0068003114307813 0.0
1.4933391055086305 -0.3784373567694895 0.0
1.4987082875774083 -0.0797974320371546 0.0
1.4511255732661748 -0.3406750634235231 0.0
0.2433218164203981 -0.9125728500175748 0.0
1.5080121235721338 -0.0765471297460791 0.0
1.5838343301108517 0.0096683963054475 0.0
1.5335394925581285 0.0356860373718092 0.0
1.2292436626589474 -0.4764609221999663 0.0
0.6560628879402630 -1.0618168509767258 0.0
1.1309233238009926 -0.4268512214166736 0.0
0.6499917281121677 -1.0686713369327085 0.0
0.0994173309246055 -0.0678690548360621 0.0
0.0837243570439505 -0.0664761634457845 0.0
1.1859828997691786 -0.0815696438946459 0.0
1.1259802411053921 -0.0856796435298077 0.0
0.1374114575786314 -0.3654080839556040 0.0
0.1031084810292603 -0.3143739013057973 0.0
0.1594876715304967 -0.8185563388117275 0.0
0.4745886671247166 -0.9190749273969075 0.0
0.4736195496446533 -0.5304572795343963 0.0
0.5293416295894088 -0.5147217933722661 0.0
1.3884338670727883 -0.0109648993778536 0.0
1.3047694612356897 -0.0810589505781731 0.0
0.8266553988957839 -0.1236884860112800 0.0
0.8782744868325374 -0.1228351376786618 0.0
0.5706514200134016 -1.0747937296881735 0.0
0.6217919928875557 -1.1771070176202016 0.0
0.3402941527010538 -0.0279152733225062 0.0
0.3245531790947887 -0.0328168817979300 0.0
1.2799347573652937 0.0134782835245997 0.0
1.2808414021086880 0.0111901358592285 0.0
0.4485337459867951 -0.9839261887849285 0.0
1.2570891998006595 -0.0048295106597373 0.0
0.8436615756333118 -1.0377355055317645 0.0
0.7666654055493141 -0.4260186608391788 0.0
0.7853936322132777 -0.4633822193313014 0.0
0.0020939640211821 -0.4361164376652258 0.0
1.4638157768606557 -0.5658249826702370 0.0
0.0587039878665793 -0.4534613890031477 0.0
1.3443093323695212 0.0066899453727964 0.0
1.3443143924261969 0.0153017537426480 0.0
1.1455111531525435 -0.8081970886031373 0.0
1.3764618913622211 -0.0383135406283057 0.0
1.3742909888387584 -0.0561055196672936 0.0
0.0851706972094037 -0.1287968315261947 0.0
0.0732002250452426 -0.1202677931195333 0.0
0.7941836627041142 -0.0092617303445741 0.0
0.7823961422228263 -0.0239441105290405 0.0
1.2740473596931354 -0.6144732641194902 0.0
1.2472825614265133 -0.1101347360345860 0.0
1.4085456605889075 -0.5687944082521142 0.0
1.5239677950212536 -0.0896611607370386 0.0
1.2034295142323603 -0.0640079769251410 0.0
0.6278228959074205 -1.1196796460383065 0.0
0.8847671885689692 -0.8870038331317427 0.0
0.7760492497603123 -1.1851117702918632 0.0
1.1109520937020514 -0.0714493654807349 0.0
0.5654717784086194 -0.8088517971651399 0.0
1.0653022579227698 -0.0505464742145729 0.0
1.0668966025459432 -0.0511221284817132 0.0
1.5655534566149494 -0.0777354343736038 0.0
0.1212026572542137 -0.0403671379594670 0.0
0.1114994728304589 -0.0393623783208701 0.0
0.9917546205438189 -0.8634454472818105 0.0
0.0451133323851157 -0.2439189044048016 0.0
0.4823105764569309 -0.6975222106416581 0.0
0.2310537048513633 -0.8713234383298666 0.0
1.5494923037886184 -0.1798170736037636 0.0
1.2282936521783021 -0.2191903502343999 0.0
1.2100615954704415 -0.2005084603650472 0.0
1.1652921985098184 -0.2658823099130680 0.0
0.4616211775126658 -0.2122474318492476 0.0
0.4893520116207012 -0.2024817800358958 0.0
1.2383352315940679 -0.2872827611962716 0.0
1.0458091115210348 -0.0248708546915957 0.0
1.0439971190398996 -0.0257436860528166 0.0
0.9550898028110093 -0.1072849817168035 0.0
1.0105594950598180 -0.1114482774987650 0.0
0.2918664649877817 -0.0490417901928883 0.0
0.2855190428812209 -0.0470354721553976 0.0
0.8478289694153476 -0.0263582737392817 0.0
1.5610837268632409 -0.1668156545069499 0.0
0.0443074637209950 -0.0123061728353675 0.0
0.0343995917349184 -0.0134998393210580 0.0
1.5363255672086340 -0.0970611601237801 0.0
1.5679099127053324 -0.1235197951835450 0.0
0.1292384464358344 -0.5639601220586524 0.0
1.0961542215820688 0.2304168042763214 0.0
1.0944009638225924 0.2306816263367825 0.0
0.2973764905651608 -0.5124496473133037 0.0
0.2606713626269520 -0.4691559597912065 0.0
0.6381732693954111 -0.9377568850222420 0.0
0.9290570027924144 -0.0581378378271231 0.0
0.8999837256716177 -0.1926622528036579 0.0
0.0417730709709635 -0.2224373669701009 0.0
0.4682499453222875 -1.1395735820045190 0.0
0.2521663299553460 -0.8650016512150697 0.0
0.8221207500320092 -0.1339988698643289 0.0
1.0877514048477064 -0.7651352862646591 0.0
1.5561598943491415 -0.0599334628928826 0.0
0.5521119683198596 -1.0573291322859872 0.0
0.0150089868383998 -0.3705111219773019 0.0
1.0557955861962411 -0.6289150573931103 0.0
0.0538291520174183 -0.3502767249841949 0.0
0.7695863142506930 -0.9569279711559318 0.0
0.4224490033094415 -0.0201365862113288 0.0
0.4372531493634422 -0.0172930060002608 0.0
0.0602762486454776 -0.1222815255760927 0.0
0.0505977310855291 -0.0318745416927796 0.0
0.0400368308680583 -0.0304043570581322 0.0
1.2378523071576164 -0.7571301773961852 0.0
0.9316513150335752 -0.5918758967480507 0.0
0.5719702013048886 -1.0948823708763975 0.0
0.0450117269945092 -0.1418313905701807 0.0
0.8663156755347073 0.1644912291029446 0.0
0.8395727576984858 0.1313538089057343 0.0
0.1953547869544951 -0.1766763380014981 0.0
0.1719000657719714 -0.1700362111737793 0.0
1.6314646981341510 -0.1190051724606623 0.0
1.5672603357162360 -0.3346296122421863 0.0
0.6445250551060132 -1.1262216947813397 0.0
0.7044284788974065 -1.1457598618685629 0.0
0.1514795781063608 -0.4722299801486807 0.0
0.4121381283289413 -1.1161885646735208 0.0
0.0507548214234218 -0.0290068099965957 0.0
0.0581022399100503 -0.0299460822552949 0.0
0.4442806667043419 -1.0593680760274762 0.0
0.6668907617544545 -0.1294778664606901 0.0
0.6391363630093292 -0.1190223389295694 0.0
0.9650936572478513 -0.4004015367257195 0.0
1.3561927506187981 -0.0340153693442020 0.0
0.1546829037483050 -0.6537015732858976 0.0
1.3067147886661383 -0.0591314509965200 0.0
0.9288762649190643 -0.3781670506893159 0.0
0.5137312938357120 -0.0315509715064692 0.0
0.5302050730504889 -0.0348515714773576 0.0
0.8929509792938076 -0.0215458080740532 0.0
1.5128233618553195 -0.3600568694272374 0.0
1.4272383627470986 -0.4059143681623190 0.0
0.5668942183915074 -0.9602494154945536 0.0
1.5998828986422835 -0.0525650241403918 0.0
1.5897839871864001 -0.0444208231436549 0.0
0.2553752323534177 -0.3133153914785766 0.0
0.2237495937878848 -0.3030057774207561 0.0
0.7792428086870229 -0.1431456292505040 0.0
0.8005816670148393 -0.1598630206086457 0.0
1.5542044425959654 -0.0748401310613354 0.0
0.5706165005620631 -0.0637744672332917 0.0
0.6408696925155091 -0.0771642575755505 0.0
0.6606604813415865 -0.0810242511831881 0.0
1.2611127960756383 0.0567449719433425 0.0
1.2108766074627051 0.0464234320199105 0.0
0.6410562348052268 0.0338543454614186 0.0
0.6425447925343241 0.0322597873699482 0.0
1.4548893126601614 -0.0560806802892372 0.0
0.3272962857550389 -0.0545853164557566 0.0
0.3401043674663374 -0.0572900718673371 0.0
0.2759006511639834 -0.1167140845944421 0.0
0.2951430864577039 -0.1163749569061301 0.0
0.7310985309749114 0.0593353993745940 0.0
0.7329426400264316 0.1060147881720357 0.0
0.0186621083792291 -0.4058478324360079 0.0
1.3126876547048956 -0.7316000032242582 0.0
1.3358567314006469 -0.7691409226412201 0.0
0.6624366805131408 -0.6122924471049197 0.0
0.7419518546779331 -0.5423905977513168 0.0
1.3788440600471465 -0.4207311502488086 0.0
0.6061647954491667 0.0250557745220559 0.0
0.6336120786423551 -0.0207819663521294 0.0
0.5382208919181097 -0.1083740845513879 0.0
0.5407064583215778 -0.1062355172004374 0.0
0.6558166611221820 -1.1689698270758888 0.0
0.1093743207675392 -0.0246017810629207 0.0
0.1048670724905903 -0.0256054422771971 0.0
0.5951595777762363 -0.7962624795324509 0.0
0.6720365729259157 -0.0974062669934252 0.0
0.6708309380761522 -0.1052514263518155 0.0
1.3114740729648011 -0.1344122136496569 0.0
1.3158886226403690 -0.1134259048544790 0.0
0.4936037774768173 -0.3112264540362676 0.0
0.4392811665138673 -0.3158453325541083 0.0
-0.0150805393080944 -0.1974505646186364 0.0
1.3754958488393878 -0.1648456517164341 0.0
0.6234297870796391 -0.8717471805800472 0.0
0.1267058896677004 -0.4738117771694544 0.0
0.4334951942613909 -0.6914652789226173 0.0
0.9960554038741772 -1.0137128187231075 0.0
0.8851727280640934 -1.1649729967359308 0.0
1.4950946181721467 -0.0629115973632750 0.0
1.4910130931784640 -0.0942501016460204 0.0
0.6368029428881457 -1.2169604452383818 0.0
1.0295623801404423 -0.2561460727280490 0.0
0.9868889530512529 -0.2108213508845881 0.0
0.5413923303505129 -0.1541342178860053 0.0
0.5288679981526261 -0.1615275488352122 0.0
1.5521651175540185 -0.1077819059430019 0.0
0.9508679840641404 -1.0588767354384216 0.0
0.4033336032958773 -1.0599486809593914 0.0
1.2091401807869702 -0.1674003152124806 0.0
1.5665350057670675 -0.0893756720019977 0.0
1.5759647546056579 -0.0939444718803358 0.0
1.2698294532468481 -0.1652355845352962 0.0
0.1173939708134126 -0.0087848462542157 0.0
0.1246456189653792 -0.0069240266673567 0.0
0.4254976204109969 0.0659204714339445 0.0
1.3551829307993530 -0.1348047332997417 0.0
1.3256779703886685 0.0233248566126481 0.0
0.4270048933734089 -0.8570536451904724 0.0
0.1480227471057106 -0.2502910448006459 0.0
0.1230933191444757 -0.2255792728718408 0.0
0.1963065039638489 -0.0833450977603311 0.0
0.1771549232099807 -0.0829066351473651 0.0
0.3788969483167812 -0.6461180606342091 0.0
-0.0123103396929246 -0.1427311635037314 0.0
0.8631026098962911 -0.8047438996420189 0.0
0.5214719640039094 0.0366263111906854 0.0
0.5047276272272162 0.0191945100395098 0.0
1.4809055867128229 -0.0472150406328942 0.0
1.4810838347602087 -0.0587615301301640 0.0
0.9252849430946019 -1.0804368921441792 0.0
1.5721573051482636 -0.1766902859901362 0.0
0.4295638428624435 -0.0490195431433900 0.0
0.0445498682497703 -0.0487011064290433 0.0
0.0333490338086934 -0.0442329861414184 0.0
0.3647642152676467 -0.8058095686462605 0.0
0.0289296227815412 -0.1377772007727053 0.0
0.6919745138776378 -0.8496999941605433 0.0
1.4327420023418642 -0.1383905730642545 0.0
0.6493034007629410 -0.3874492143636342 0.0
0.6132656208944419 -0.4118232356663620 0.0
0.6092170393560083 -1.1087134205311553 0.0
0.6700032059559135 0.0785082051613128 0.0
0.6670657303306082 0.0811063857253273 0.0
0.7561645547142898 -1.0752217867006830 0.0
0.1170448059033482 -0.6730354588788392 0.0
0.1046677489283718 -0.5306398843128654 0.0
-0.0004627633991269 -0.1357483884613017 0.0
0.8422149600804518 0.0648787403195979 0.0
0.8050934793187383 0.0965754472438512 0.0
0.8329393030361766 -0.0508223089546174 0.0
0.8042740078639296 -0.0674087950688291 0.0
0.3080419858481359 -0.8920354930630381 0.0
0.6744724479540655 -0.1627111171218850 0.0
0.7407562955660956 -0.9319563945907452 0.0
1.3259252321804749 -0.7771996209313209 0.0
0.5471726743734346 0.0824739049982880 0.0
1.4804603436772306 -0.0110514734889834 0.0
1.4840723535799343 -0.0070841878963178 0.0
1.0484363807007777 -1.0605668162998427 0.0
0.7071561835813009 -1.0937434155330954 0.0
1.3374594715024906 -0.1730955457346353 0.0
0.6895607724449496 -1.1518566020578376 0.0
0.0533096146973803 -0.4548785086598414 0.0
1.1983363861680749 -0.0711598070888738 0.0
0.3741039516818301 -1.0029168213409496 0.0
1.6325242714408972 -0.0980748264444205 0.0
0.4106022885398891 -0.0051916197522218 0.0
1.5804534579399578 -0.0858720253582404 0.0
1.5500621780191171 -0.0993814131792646 0.0
0.0073230702247136 0.0018578860368449 0.0
0.0130643668158197 0.0030802865617807 0.0
0.5354935204256036 0.0415877315977967 0.0
0.3570914065015700 -0.0522400173833228 0.0
0.0051528858621744 -0.0053156835147885 0.0
0.0088431378760934 -0.0047892963471423 0.0
0.5549404319938080 -0.0345400125762972 0.0
0.6146492399695680 -0.8235210933960574 0.0
0.5589815111043337 -0.0341060956980451 0.0
0.5529345479370598 -0.0269785956403308 0.0
0.7073446431056964 -0.2916758970646049 0.0
0.7461214777704230 -0.2827206226659377 0.0
0.6112320742467745 -0.7050189667140496 0.0
0.3372871681394569 -0.3932347422950730 0.0
0.3792479729162794 -0.4167905917821150 0.0
0.0253728201926026 0.0029329399700342 0.0
0.0163543079127176 0.0013283104379606 0.0
1.3361467117398416 -0.5002729595753521 0.0
1.2943637047516328 -0.6409845779415788 0.0
0.8964872316059582 -0.5704066257565941 0.0
0.7904620424295762 -0.4673443772528107 0.0
