# vtk DataFile Version 3.0
LucasCarvalhoTCC Results
ASCII

DATASET POLYDATA
FIELD FieldData 1
TIME 1 1 double
0.2

POINTS 380 float
0.0 2.0 0.0
2.0 2.0 0.0
3.0 2.0 0.0
3.0 1.0 0.0
5.0 1.0 0.0
5.0 0.0 0.0
3.0 0.0 0.0
2.0 0.0 0.0
2.0 1.0 0.0
0.0 1.0 0.0
0.2643114543905713 2.0 0.0
0.5169795502969444 2.0 0.0
0.7585171880292413 2.0 0.0
0.9894145836600268 2.0 0.0
1.210140497826619 2.0 0.0
1.421143008568911 2.0 0.0
1.622850459538253 2.0 0.0
1.815672303789548 2.0 0.0
2.188552664328277 2.0 0.0
2.359329284173903 2.0 0.0
2.514005696104645 2.0 0.0
2.654099788331341 2.0 0.0
2.780986322989182 2.0 0.0
2.895910470953052 2.0 0.0
3.0 1.9 0.0
3.0 1.8 0.0
3.0 1.7 0.0
3.0 1.6 0.0
3.0 1.5 0.0
3.0 1.4 0.0
3.0 1.3 0.0
3.0 1.2 0.0
3.0 1.1 0.0
3.105031513416626 1.0 0.0
3.221094637894669 1.0 0.0
3.349348047908936 1.0 0.0
3.491072094154001 1.0 0.0
3.647681638607018 1.0 0.0
3.820740106959136 1.0 0.0
4.011975186625977 1.0 0.0
4.223295996958671 1.0 0.0
4.456812096249916 1.0 0.0
4.714854728122151 1.0 0.0
5.0 0.7500000000000003 0.0
5.0 0.5000000000000012 0.0
5.0 0.2500000000000011 0.0
4.735688545609428 0.0 0.0
4.483020449703056 0.0 0.0
4.241482811970759 0.0 0.0
4.010585416339973 0.0 0.0
3.789859502173381 0.0 0.0
3.578856991431089 0.0 0.0
3.377149540461747 0.0 0.0
3.184327696210452 0.0 0.0
2.811447335671723 0.0 0.0
2.640670715826097 0.0 0.0
2.485994303895355 0.0 0.0
2.345900211668659 0.0 0.0
2.219013677010818 0.0 0.0
2.104089529046948 0.0 0.0
2.0 0.1 0.0
2.0 0.2 0.0
2.0 0.3 0.0
2.0 0.4 0.0
2.0 0.5 0.0
2.0 0.6 0.0
2.0 0.7 0.0
2.0 0.8 0.0
2.0 0.9 0.0
1.894968486583374 1.0 0.0
1.77890536210533 1.0 0.0
1.650651952091063 1.0 0.0
1.508927905845999 1.0 0.0
1.352318361392982 1.0 0.0
1.179259893040864 1.0 0.0
0.9880248133740233 1.0 0.0
0.7767040030413299 1.0 0.0
0.5431879037500846 1.0 0.0
0.2851452718778493 1.0 0.0
0.0 1.25 0.0
0.0 1.499999999999999 0.0
0.0 1.749999999999999 0.0
2.426045913985508 1.348290599604586 0.0
2.562221387987337 0.6558377602558874 0.0
1.966703786708101 1.492474555319359 0.0
3.033486484223225 0.4973568340887861 0.0
2.371610747520728 0.97814425147097 0.0
2.648098402859118 1.648016516253387 0.0
2.351901597140882 0.3519834837466129 0.0
2.694321138879857 1.061432730999581 0.0
1.441644339445862 1.496646809257773 0.0
3.554831642064292 0.501744031268764 0.0
2.720742750697982 1.350625068836981 0.0
2.282037541072919 0.639419348257894 0.0
2.813390610951134 0.7911761792959446 0.0
2.310700631729327 1.679155452525512 0.0
2.688751528716965 0.3206838402855661 0.0
2.211165393176843 1.213708510063781 0.0
0.9449004170027906 1.496357611130017 0.0
4.05509958299721 0.5036423888699835 0.0
3.025501657200047 0.7528388163714679 0.0
1.714778657098197 1.300039655550584 0.0
1.958264922640818 1.245975101752485 0.0
2.206386339371814 0.8500000000000001 0.0
3.336706349465057 0.704398544338507 0.0
4.529565928894533 0.555233644424822 0.0
0.4704340711054673 1.444766355575178 0.0
2.186983355180128 1.461437746541105 0.0
2.553715879020142 0.8859594914241276 0.0
2.782212276375736 0.5474565156445963 0.0
2.500206140967324 1.148517546040804 0.0
2.803373162317882 1.783880361314082 0.0
2.196626837682118 0.2161196386859174 0.0
1.735623536927746 1.664129737658362 0.0
3.268802735993943 0.3358439745752063 0.0
2.799454045372581 1.51553500056848 0.0
2.18762015375897 0.4992029885790829 0.0
2.813478812948685 1.18678600527921 0.0
2.400994471757771 0.7612313552289275 0.0
2.405444563947088 0.5311203927463914 0.0
2.583195945356847 1.473216966241769 0.0
3.734210872783077 0.7260959952797862 0.0
1.256500988572085 1.265010492624376 0.0
2.938353069321001 0.2909212553641365 0.0
2.061245308362322 1.709221243241415 0.0
2.182240881432738 1.001025052084926 0.0
2.830214026212788 0.9796244234047695 0.0
2.49023894829247 1.787687811117195 0.0
2.50976105170753 0.2123121888828049 0.0
1.194806886820808 1.686899295332255 0.0
3.805193113179192 0.3131007046677451 0.0
2.655039231860651 1.208917360245127 0.0
1.493530449555064 1.231198576616718 0.0
2.345622594939228 1.152685186835846 0.0
2.41380980106708 1.521513100394759 0.0
2.58979513084283 0.4863225267637531 0.0
2.135472648094309 0.7246460081196311 0.0
2.912574128751924 0.660128736186259 0.0
2.866043013605144 1.353074765380587 0.0
0.6928324624395237 1.69170809873467 0.0
4.307167537560476 0.3082919012653306 0.0
2.071506740582853 1.128535871978767 0.0
0.6831902494895832 1.302725441792086 0.0
4.316809750510417 0.6972745582079137 0.0
2.85534466702333 1.667491236848871 0.0
2.141886244104996 0.336139391754002 0.0
1.447743165823209 1.773242752731258 0.0
3.554386585610856 0.224002072703283 0.0
2.96485662756902 0.8593908564801968 0.0
3.240425509636175 0.8099760775594669 0.0
2.088410584923666 1.339747073830609 0.0
3.277530767974837 0.4939020807639749 0.0
3.534313505233912 0.7935179117986669 0.0
2.546683861402325 1.011736398479819 0.0
2.664793655038503 0.758149595673951 0.0
2.7009922066801 0.9086021996324817 0.0
1.844652141496971 1.153158997353228 0.0
2.575910747861113 1.316876286520138 0.0
3.994328863599566 0.7454319923658932 0.0
1.005671136400434 1.254568007634107 0.0
1.722192091537185 1.482888323667831 0.0
2.644751416415203 1.850904811198953 0.0
2.355248583584797 0.1490951888010467 0.0
2.31560379269905 1.25706851182614 0.0
2.129697972466254 0.5864366202645266 0.0
2.417220568140766 0.6397160301847872 0.0
2.867945749403976 1.069821281672812 0.0
3.182303046124178 0.6739667261124369 0.0
4.702774994215813 0.2953677284017739 0.0
0.2972250057841874 1.704632271598226 0.0
2.90043748182062 0.4316738443013928 0.0
2.486081387366873 0.3514585853722887 0.0
2.513918612633127 1.648541414627711 0.0
2.086778258621772 1.563111332603502 0.0
4.025359850459486 0.2638518716814435 0.0
0.9746401495405139 1.736148128318556 0.0
3.116389458098145 0.2933651166122753 0.0
1.885410353788165 1.707062521230272 0.0
2.327134732627959 1.833634230002939 0.0
2.672865267372041 0.1663657699970617 0.0
1.675899428547673 1.15999616666306 0.0
1.858973331615206 1.373382723203102 0.0
2.860266039499884 1.862282581689995 0.0
2.139733960500116 0.1377174183100045 0.0
1.257473476073173 1.479081588926576 0.0
3.731624273377778 0.5208146070195914 0.0
2.115038607594509 0.9238947313642476 0.0
0.2734661728051435 1.270630989444945 0.0
4.726533827194856 0.7293690105550548 0.0
2.699965708650878 1.465007479364728 0.0
2.298365077320068 0.5341069340550768 0.0
2.510583000486659 0.7602856732279889 0.0
3.370667741214912 0.8392397884376295 0.0
3.067541604254986 0.8806352314757129 0.0
2.90073732483139 1.443475210354718 0.0
2.264071206758208 0.9501943312745662 0.0
2.278663096491763 0.7489636980394857 0.0
1.952511813454414 1.110576661474517 0.0
2.744352083917141 0.687787375233183 0.0
1.566252941493004 1.383661493752942 0.0
2.437660520624072 0.8703573012735125 0.0
2.904826075218911 1.261819176983655 0.0
2.305967018083784 1.391390767447104 0.0
2.105729326736999 0.8145314366030645 0.0
2.428967188976762 1.236966721617647 0.0
3.060475488407204 0.1442825789852263 0.0
1.934979199332455 1.852811714602595 0.0
2.095475260770118 0.4348597444661615 0.0
2.914777085426361 1.759093454264707 0.0
2.084827330449114 0.2414252069642749 0.0
2.207128288422204 1.315477221019454 0.0
2.658751426439581 0.5773232450959589 0.0
2.612380011409894 1.114144853433198 0.0
2.897371573983894 1.569769587751228 0.0
0.5001010519014215 1.226918930408543 0.0
4.499898948098578 0.7730810695914568 0.0
2.753086810589338 1.690362801865437 0.0
2.246793053318422 0.3097947118702842 0.0
3.391580469276819 0.5673489147038103 0.0
3.035026488699165 0.6179797538177514 0.0
2.449819864663089 1.055109427275025 0.0
2.27653308928065 1.054384468582349 0.0
2.794675693196835 1.418106589018447 0.0
2.778866980525137 1.083577784614141 0.0
2.244522876020972 0.1116738824400324 0.0
2.755477123979027 1.888326117559968 0.0
2.323887028942199 0.8604475039748537 0.0
2.204900210979926 1.747483509451062 0.0
2.794853185869193 0.2526222191943996 0.0
2.320767315286541 1.530441598510029 0.0
1.550828143561484 1.606851581022188 0.0
2.796593663741882 1.288013595743853 0.0
3.436143660897262 0.3940652474171653 0.0
2.682379445750112 0.4493639922429763 0.0
3.242313228541417 0.154845696987206 0.0
1.75965289115187 1.844031320058407 0.0
1.3642341383496 1.159631408929946 0.0
1.980047380836635 1.36362624976796 0.0
2.070303834520089 1.451946835577872 0.0
2.55866460451515 1.229901920133861 0.0
4.26844523535139 0.499131154814159 0.0
0.7315547646486098 1.500868845185841 0.0
2.716116351489881 1.570657861970705 0.0
2.283245236086922 0.4299499540566049 0.0
4.50573905238033 0.204273435313806 0.0
0.4942609476196695 1.795726564686194 0.0
3.605070352001925 0.644396355247622 0.0
3.171946621948212 0.9019117497969773 0.0
3.40309695214227 0.1789624633199048 0.0
1.59690304785773 1.821037536680094 0.0
4.776800700354217 0.5074282293075529 0.0
0.2231992996457826 1.492571770692447 0.0
1.293020597407515 1.839015256431498 0.0
3.706979402592485 0.1609847435685022 0.0
1.398281395597716 1.351857389185529 0.0
2.880181082677912 0.1378504756446906 0.0
2.119200639021148 1.861833157788504 0.0
2.408646939494887 0.2452196658480275 0.0
2.591353060505113 1.754780334151973 0.0
1.146570081566377 1.160946826906423 0.0
3.853429918433624 0.8390531730935771 0.0
2.920846657438631 1.149071660619678 0.0
2.101132283911678 1.226382957654413 0.0
2.903672483971366 0.7774662795474147 0.0
2.516386521935266 0.571665255016536 0.0
2.475412447847437 1.444413760085193 0.0
2.903041575637174 0.5510905120278109 0.0
3.666476299189054 0.8553176740217776 0.0
1.558137053653031 1.119389262041809 0.0
3.867595456948903 0.1475874639835382 0.0
1.132404543051097 1.852412536016462 0.0
2.635017655944937 0.9730281566682446 0.0
2.436667490139274 1.901171080200935 0.0
2.563332509860726 0.09882891979906516 0.0
2.091598337090247 1.040423151014485 0.0
0.8316881289508771 1.172977685150089 0.0
4.168311871049123 0.827022314849911 0.0
3.648565743761548 0.3681286963687066 0.0
1.355037313653319 1.636865536133179 0.0
2.58412781071005 1.576586299624529 0.0
2.41587218928995 0.4234137003754711 0.0
2.083716468691946 0.6634832154935376 0.0
1.843942294678346 1.256771801786488 0.0
[...]
POINT_DATA 380

VECTORS Velocity float
0.0000000000000000 0.0000000000000000 0.0
0.0000000000000000 0.0000000000000000 0.0
0.0000000000000000 0.0000000000000000 0.0
0.0000000000000000 0.0000000000000000 0.0
0.0000000000000000 0.0000000000000000 0.0
0.9255421632221955 -0.1055949389074243 0.0
0.0000000000000000 0.0000000000000000 0.0
0.0000000000000000 0.0000000000000000 0.0
0.0000000000000000 0.0000000000000000 0.0
0.0000000000000000 0.0000000000000000 0.0
0.0000000000000000 0.0000000000000000 0.0
0.0000000000000000 0.0000000000000000 0.0
0.0000000000000000 0.0000000000000000 0.0
0.0000000000000000 0.0000000000000000 0.0
0.0000000000000000 0.0000000000000000 0.0
0.0000000000000000 0.0000000000000000 0.0
0.0000000000000000 0.0000000000000000 0.0
0.0000000000000000 0.0000000000000000 0.0
0.0000000000000000 0.0000000000000000 0.0
0.0000000000000000 0.0000000000000000 0.0
0.0000000000000000 0.0000000000000000 0.0
0.0000000000000000 0.0000000000000000 0.0
0.0000000000000000 0.0000000000000000 0.0
0.0000000000000000 0.0000000000000000 0.0
0.0000000000000000 0.0000000000000000 0.0
0.0000000000000000 0.0000000000000000 0.0
0.0000000000000000 0.0000000000000000 0.0
0.0000000000000000 0.0000000000000000 0.0
0.0000000000000000 0.0000000000000000 0.0
0.0000000000000000 0.0000000000000000 0.0
0.0000000000000000 0.0000000000000000 0.0
0.0000000000000000 0.0000000000000000 0.0
0.0000000000000000 0.0000000000000000 0.0
0.0000000000000000 0.0000000000000000 0.0
0.0000000000000000 0.0000000000000000 0.0
0.0000000000000000 0.0000000000000000 0.0
0.0000000000000000 0.0000000000000000 0.0
0.0000000000000000 0.0000000000000000 0.0
0.0000000000000000 0.0000000000000000 0.0
0.0000000000000000 0.0000000000000000 0.0
0.0000000000000000 0.0000000000000000 0.0
0.0000000000000000 0.0000000000000000 0.0
0.0000000000000000 0.0000000000000000 0.0
1.1372873796191336 0.2677167744591668 0.0
0.8533443304333492 0.0043639625409408 0.0
1.0964779814776529 -0.2207907797431796 0.0
0.0000000000000000 0.0000000000000000 0.0
0.0000000000000000 0.0000000000000000 0.0
0.0000000000000000 0.0000000000000000 0.0
0.0000000000000000 0.0000000000000000 0.0
0.0000000000000000 0.0000000000000000 0.0
0.0000000000000000 0.0000000000000000 0.0
0.0000000000000000 0.0000000000000000 0.0
0.0000000000000000 0.0000000000000000 0.0
0.0000000000000000 0.0000000000000000 0.0
0.0000000000000000 0.0000000000000000 0.0
0.0000000000000000 0.0000000000000000 0.0
0.0000000000000000 0.0000000000000000 0.0
0.0000000000000000 0.0000000000000000 0.0
0.0000000000000000 0.0000000000000000 0.0
0.0000000000000000 0.0000000000000000 0.0
0.0000000000000000 0.0000000000000000 0.0
0.0000000000000000 0.0000000000000000 0.0
0.0000000000000000 0.0000000000000000 0.0
0.0000000000000000 0.0000000000000000 0.0
0.0000000000000000 0.0000000000000000 0.0
0.0000000000000000 0.0000000000000000 0.0
0.0000000000000000 0.0000000000000000 0.0
0.0000000000000000 0.0000000000000000 0.0
0.0000000000000000 0.0000000000000000 0.0
0.0000000000000000 0.0000000000000000 0.0
0.0000000000000000 0.0000000000000000 0.0
0.0000000000000000 0.0000000000000000 0.0
0.0000000000000000 0.0000000000000000 0.0
0.0000000000000000 0.0000000000000000 0.0
0.0000000000000000 0.0000000000000000 0.0
0.0000000000000000 0.0000000000000000 0.0
0.0000000000000000 0.0000000000000000 0.0
0.0000000000000000 0.0000000000000000 0.0
1.0000000000000000 0.0000000000000000 0.0
1.0000000000000000 0.0000000000000000 0.0
1.0000000000000000 0.0000000000000000 0.0
0.6375137073486217 -0.4778830180933827 0.0
0.5936068125541166 -0.4871491206703280 0.0
1.0738301555505021 -0.2437167527447741 0.0
1.0342294635418723 -0.2499405741367700 0.0
0.4522790925228772 -0.7569054558188792 0.0
0.4691781774768817 -0.1490883507675236 0.0
0.4468829994716468 -0.1586991314536390 0.0
0.4077262453733869 -0.7878807371017287 0.0
1.2214190626116150 -0.0635678616417450 0.0
1.2238627433557212 -0.0688451552101416 0.0
0.3023062900321445 -0.4074804387010196 0.0
0.2970333618672964 -0.4178566849583255 0.0
0.8567191914471017 -0.7510203117197970 0.0
0.7782175595636027 -0.1668275733366684 0.0
0.7685982807254450 -0.1703688371239261 0.0
0.8445377460469702 -0.6881672596210638 0.0
1.3455786564660261 -0.0138668505012909 0.0
1.3466510068289652 -0.0087304627617338 0.0
1.3137069779451711 -0.4296818123100044 0.0
1.2827318504890668 -0.1682964895311364 0.0
1.3383525433621777 -0.3983073583572840 0.0
0.1424281142266614 -0.8305092741134377 0.0
1.3056339075976757 -0.1377871514888448 0.0
1.3684819085194446 0.0034870487523680 0.0
1.3649027229199793 0.0096814445666537 0.0
0.8798255630277967 -0.3536161380349559 0.0
0.5192975748456569 -0.6773106581523818 0.0
0.8266240972295434 -0.3468353714989156 0.0
0.5017247130167602 -0.6586908266402673 0.0
0.4125260760037827 -0.0158666279454739 0.0
0.3845805666380229 -0.0237776816526095 0.0
1.1762593615843187 -0.0564860757684647 0.0
1.1758358109462270 -0.0574071364462062 0.0
0.2904683277425924 -0.2145442610398247 0.0
0.2502920158198062 -0.2143750413353606 0.0
0.0624539901955413 -0.6554646708001303 0.0
0.4071566652123111 -0.5700748351186903 0.0
0.4571407190948464 -0.3345534018418749 0.0
0.4861692763571399 -0.3151280660198568 0.0
1.3039184235908776 -0.0717572669028287 0.0
1.2650708600763125 -0.0836483917392699 0.0
0.9589073077487745 -0.1258045919738730 0.0
0.9742613376368063 -0.1138305689615063 0.0
0.4411346510875190 -1.1999023453357522 0.0
0.4563933474525278 -1.2308538438039489 0.0
0.6162008687641024 -0.0238446083336940 0.0
0.5986351633741627 -0.0292137079247259 0.0
1.2555425992726092 0.0258643885298615 0.0
1.2594763211989082 0.0268410833985980 0.0
0.3537109557001580 -0.5902905262963306 0.0
1.2826600424731220 -0.0545533569440977 0.0
0.6395876849743310 -0.6956718874496443 0.0
0.6365872177998144 -0.3078057149500273 0.0
0.6421963148779487 -0.3235796438963064 0.0
-0.0627862246523998 -0.4766899734555262 0.0
1.0529723924985439 -0.4874072763155896 0.0
0.1187499195139102 -0.3313642696071364 0.0
1.3137927837573329 0.0205555781838910 0.0
1.3174629476983459 0.0148173559688720 0.0
1.3513126568727267 -0.9772054355608043 0.0
1.3303409949314888 -0.0520788793144744 0.0
1.3281338422240883 -0.0526132506848561 0.0
0.3424066058876797 -0.0653725850110694 0.0
0.3116573884303346 -0.0774642777134346 0.0
0.9498054062250564 -0.0172833590114222 0.0
0.9538207997805831 -0.0224084971898877 0.0
1.4782337266302763 -0.8205788470130306 0.0
1.3679989067914820 -0.1684843412679453 0.0
1.0274289997231554 -0.4551183875302210 0.0
1.1650093218990611 -0.1127808577399161 0.0
1.2999771066081534 -0.0722085051144251 0.0
0.4842417449200367 -0.7047084568354316 0.0
0.6726533423052055 -0.5978741010377425 0.0
0.5885686641778831 -0.8169386268048896 0.0
1.4657677182202327 -0.1527169987115715 0.0
0.4657765370776777 -0.4791615287491893 0.0
1.0784662082588248 -0.0315760434692788 0.0
1.0831464681536211 -0.0283032963711191 0.0
1.1803476417752743 -0.1135310713061420 0.0
0.3757657152401761 -0.0291536172033921 0.0
0.3574295434836810 -0.0324826653076352 0.0
0.7246531256649305 -0.5891103225245453 0.0
0.1327553268029979 -0.2055960970060101 0.0
0.4334462115278083 -0.4342747053530626 0.0
-0.0195674138165897 -1.0937193099238784 0.0
1.2398309730884904 -0.2399946419408590 0.0
1.1353772640190678 -0.1323283987078141 0.0
1.1433239568368669 -0.1248180381636316 0.0
0.9124860955070653 -0.2526271060781603 0.0
0.5471773081573555 -0.1737795657011107 0.0
0.5651945027089768 -0.1634173809374546 0.0
0.9434184211314427 -0.2445214458655927 0.0
1.0723938281938783 -0.0005052361395541 0.0
1.0693867719963543 -0.0011543335216713 0.0
1.0884071911043809 -0.0833513231406588 0.0
1.0961218784313773 -0.0791834405531576 0.0
0.5274244986423933 -0.0485863454657798 0.0
0.5167212431811814 -0.0501764463285806 0.0
1.0777617038019676 -0.0790006133615877 0.0
1.1632746761792168 -0.2275699271421033 0.0
0.3953102330086272 0.0417223198569343 0.0
0.3669754213429171 0.0353593669620008 0.0
1.2269687048423241 -0.0562942546057862 0.0
1.2332135969480948 -0.0653541801442752 0.0
-0.2464845463654965 -1.0424437871441221 0.0
1.1095911471728235 0.1486861439387279 0.0
1.1128092379781895 0.1429431414171353 0.0
0.3593626883675848 -0.2923124657544522 0.0
0.3381096803905025 -0.2942532572320944 0.0
0.5150502186512804 -0.5870103033573263 0.0
1.1074984483601895 -0.0829148887768228 0.0
1.2342318307239588 -0.3560195569830828 0.0
0.1771257895474050 -0.1582143470492705 0.0
0.3302288998291669 -0.8455997461134007 0.0
0.2481165864865784 -0.5574049715792750 0.0
1.3167869856505008 -0.1866565624343249 0.0
0.7908597962016571 -0.5412055553132361 0.0
1.2240310169188944 -0.0891135092958648 0.0
0.4469643809441867 -0.6659223379215897 0.0
-0.0529250695278955 -0.3339340535014353 0.0
0.7563209585168380 -0.4318906459255115 0.0
-0.0853531946590825 -0.5079998650390141 0.0
0.5809288721512228 -0.5994085091902130 0.0
0.6662237556228320 -0.0240762782215686 0.0
0.6684468137374415 -0.0206998559026572 0.0
0.2400948345365516 -0.0907328275626608 0.0
0.3359257481501339 -0.0071274756904669 0.0
0.3071551966633861 -0.0126230862205055 0.0
0.9035908202641103 -0.5601186971883786 0.0
0.7036996214801404 -0.4164295949565742 0.0
0.4351808266221812 -0.6823183407508964 0.0
0.2460829316015913 -0.0830675495266233 0.0
0.9572444292639428 0.0855132098612394 0.0
0.9492784463695509 0.0754044219672508 0.0
0.4113609685146189 -0.1008095767557261 0.0
0.3876236220390397 -0.1102334580756975 0.0
1.2213166195120606 -0.1051662202833547 0.0
1.1357155727855723 -0.3149648246119889 0.0
0.5041848546360709 -0.7136314690202914 0.0
0.5573290566891167 -0.8381208869447782 0.0
0.2459412043105125 -0.2815065114003857 0.0
0.2822739499743708 -0.8669761922664692 0.0
0.2935502281950698 -0.0268346870165537 0.0
0.3134031689898581 -0.0247640068979241 0.0
0.3629564407930529 -0.6891849890834097 0.0
0.8733412084304811 -0.1354886250787721 0.0
0.8592477139879876 -0.1407366443895442 0.0
0.7479035379089999 -0.2959498679183318 0.0
1.2338348905498879 -0.0448910423849685 0.0
0.1750497767933192 -0.4362601743851659 0.0
1.2333419071673548 -0.0449276402497214 0.0
0.7379786268770133 -0.2986034314302363 0.0
0.7319525961880945 -0.0244428296246010 0.0
0.7295464216177983 -0.0252578807733252 0.0
1.0338409876894286 -0.0393230919242010 0.0
1.1229686603850444 -0.3342227681132087 0.0
1.0183963800022133 -0.3297580764166694 0.0
0.4487664863114545 -0.5769764222509661 0.0
1.2436333141374933 -0.0195933986816320 0.0
1.2461371457473476 -0.0173707229125597 0.0
0.3902774694478844 -0.1816246679052874 0.0
0.3658330877377918 -0.1986539841425506 0.0
0.9118543649055012 -0.0902463188724004 0.0
0.9076508701360858 -0.0955169862112128 0.0
1.2333799756259392 -0.0846706173215405 0.0
0.9669992589643088 -0.1795370908459286 0.0
0.8382954240762854 -0.0680320634149411 0.0
0.8418797862758047 -0.0714801899097917 0.0
1.1764286585849093 0.0124586836640157 0.0
1.1641896607413922 0.0057863128925842 0.0
0.8257620326499485 0.0279201709713014 0.0
0.8313663499616265 0.0265022631123780 0.0
1.2544618803898626 -0.0723824199437421 0.0
0.5608581823332284 -0.0496652685905944 0.0
0.5663809361256730 -0.0471454300297590 0.0
0.5319277371846372 -0.1164680618935755 0.0
0.5525152088564467 -0.1104919719533272 0.0
0.8821338274655310 0.0441052509493351 0.0
0.8785615485952711 0.0587268467049297 0.0
-0.2728320696925363 -0.5210625242486727 0.0
1.0768005880595291 -0.6390672080594870 0.0
1.0720142294150903 -0.6994623063849549 0.0
0.5490624816088866 -0.3957640474040693 0.0
0.5865294291312881 -0.3515157719082634 0.0
0.9753156519186320 -0.3515333824092879 0.0
0.8461520577104882 -0.0106613945811941 0.0
0.8762061552170706 -0.0752598879086442 0.0
0.7493341850908368 -0.1001919271675023 0.0
0.7467286829295435 -0.0992691953552057 0.0
0.4977346708100004 -0.7641827265892781 0.0
0.3221664107227306 -0.0395912192399152 0.0
0.3113502995511995 -0.0409079643234524 0.0
0.7296095107196849 -1.4654149293410437 0.0
0.8527814780857064 -0.0743575129911571 0.0
0.8503374983522541 -0.0748018364000752 0.0
1.2602552829234244 -0.0822939936299272 0.0
1.2573927501343583 -0.0791214815012304 0.0
0.4978565471256682 -0.2206683095272552 0.0
0.4697110473773943 -0.2303771042019284 0.0
-0.0283144125707858 -0.2250241299086983 0.0
1.2577851720515019 -0.2477439269994464 0.0
0.7673054912340260 -1.5793801165392671 0.0
0.2197306177469751 -0.3195063242446730 0.0
0.4053233595499725 -0.4029786384976805 0.0
0.9296160109833915 -1.0228196484655621 0.0
0.6891733947247088 -0.8791953566200564 0.0
1.3091355566969767 -0.0797361764986778 0.0
1.3164539436236937 -0.0909273675239436 0.0
0.4742472287472294 -0.8724145621828783 0.0
0.8433856922784073 -0.2077236534266864 0.0
0.8266268011292622 -0.2001900508253779 0.0
0.7132152363654232 -0.1199781534609062 0.0
0.6990019567597966 -0.1270475709968799 0.0
1.2796766034219489 -0.0745219355258365 0.0
0.7233842460513340 -0.7288422089057801 0.0
0.2897879950465326 -0.6896658716697677 0.0
1.0053747723248427 -0.1739333967236713 0.0
1.3019288361425301 -0.0139393909027832 0.0
1.3088750793089612 -0.0149526304928712 0.0
1.0169341219105867 -0.1607610814391308 0.0
0.3455118737992023 -0.0038879441249623 0.0
0.3600791671643060 -0.0011028933198885 0.0
0.7924141312942735 0.0689906376988081 0.0
1.0873887001464393 -0.1474353467330198 0.0
1.3425612560482709 -0.0638769589153458 0.0
0.3747066262113435 -0.5016767339194533 0.0
0.3525297020896088 -0.1271076793314197 0.0
0.3184743798270294 -0.1387542578760428 0.0
0.4912486314314883 -0.0363368326134043 0.0
0.4664574578510335 -0.0435204541171155 0.0
0.3752483894647001 -0.3948949181462011 0.0
-0.1239577291741931 -0.2272575541303975 0.0
0.6585406430693109 -0.5388089061464539 0.0
0.7221425842178796 0.0160586376796828 0.0
0.7176296172115334 0.0141647396156451 0.0
1.3296581829176228 0.0192688036015211 0.0
1.3270665115071005 0.0191086366303477 0.0
0.6992605324319385 -0.8172347132504434 0.0
1.1422003182248197 -0.2213922603330533 0.0
0.7634519429610561 -0.1031785464608961 0.0
0.3221094494559799 -0.0347262379964426 0.0
0.2849552279792911 -0.0394014517623151 0.0
0.3538386453359040 -0.4947951893794125 0.0
0.1628277958471326 -0.1246823678838165 0.0
0.5399284621049322 -0.5139455597552443 0.0
1.1113069670820117 -0.1417511134525933 0.0
0.5743965587097148 -0.2655643392796557 0.0
0.5517576111154263 -0.2824776736646845 0.0
0.4813910078358673 -0.7047377624779820 0.0
0.8464435463177006 0.0705865035216000 0.0
0.8492907803720710 0.0708284266281887 0.0
0.5847058702039925 -0.7102916183029403 0.0
0.1204526383733383 -0.6259537941158245 0.0
0.1523810315028732 -0.4172086186543882 0.0
0.0682749772174559 -0.1203407849129126 0.0
0.8861239803538599 0.0426006516008152 0.0
0.8758272475138952 0.0521262518458052 0.0
0.8817984612848543 -0.0439509754250321 0.0
0.8750637912784586 -0.0498623591500509 0.0
0.2616119648831200 -0.5543379851233787 0.0
1.3905346319065501 -0.3008789436350235 0.0
0.5823685157289383 -0.6055166272208365 0.0
0.9718559053586342 -0.5860202801208388 0.0
0.9002983287439564 0.0402096471691933 0.0
1.3213130732921905 -0.0587486720443400 0.0
1.3249284015197678 -0.0594816702452666 0.0
1.0254859822548930 -1.0862985536165921 0.0
0.5457020645285392 -0.6934866671984010 0.0
1.4570626059143237 -0.2712702311253778 0.0
0.5416406682405610 -0.7686795751188837 0.0
-0.5934825252575455 -1.1578670834127971 0.0
1.3656103779680802 -0.2549459196768907 0.0
0.3124004718431484 -1.1124658408744044 0.0
1.2120872520827317 -0.1634935200832782 0.0
0.6847659783067629 -0.0156186529602515 0.0
1.3365114545527852 0.0122952205668640 0.0
1.3335376036595052 0.0132399807483072 0.0
0.2429633072078755 0.0286511234439734 0.0
0.2664562803497140 0.0311359360238704 0.0
0.7605947829619200 0.0582049484344203 0.0
0.7432962186024386 -0.1580451332355693 0.0
0.1876600833062592 0.0063148898578390 0.0
0.2064070636890926 0.0083684755601138 0.0
0.7457903685802227 -0.0597477155686243 0.0
0.5093160702874194 -0.5125179449429061 0.0
0.7400872838649044 -0.0169875897877858 0.0
0.7462747913641014 -0.0218284186484787 0.0
0.6401596243159475 -0.2172883240542720 0.0
0.6643509672450648 -0.2045847393123698 0.0
0.5053030431117911 -0.4296452677659812 0.0
0.4166072887735897 -0.2552619924688079 0.0
0.4427759071060619 -0.2528818977041784 0.0
0.3609821809838877 0.0212911973222633 0.0
0.3313801294685028 0.0190790298663484 0.0
1.5548291674012611 -0.6941721498507083 0.0
0.9147399081599361 -0.4760893110187731 0.0
0.6715051003950271 -0.3851396250590519 0.0
1.4407590499830913 -0.8001272252631588 0.0
