# vtk DataFile Version 3.0
LucasCarvalhoTCC Results
ASCII

DATASET POLYDATA
FIELD FieldData 1
TIME 1 1 double
4.3

POINTS 380 float
0.0 2.0 0.0
2.0 2.0 0.0
3.0 2.0 0.0
3.0 1.0 0.0
5.0 1.0 0.0
5.0 0.0 0.0
3.0 0.0 0.0
2.0 0.0 0.0
2.0 1.0 0.0
0.0 1.0 0.0
0.2643114543905713 2.0 0.0
0.5169795502969444 2.0 0.0
0.7585171880292413 2.0 0.0
0.9894145836600268 2.0 0.0
1.210140497826619 2.0 0.0
1.421143008568911 2.0 0.0
1.622850459538253 2.0 0.0
1.815672303789548 2.0 0.0
2.188552664328277 2.0 0.0
2.359329284173903 2.0 0.0
2.514005696104645 2.0 0.0
2.654099788331341 2.0 0.0
2.780986322989182 2.0 0.0
2.895910470953052 2.0 0.0
3.0 1.9 0.0
3.0 1.8 0.0
3.0 1.7 0.0
3.0 1.6 0.0
3.0 1.5 0.0
3.0 1.4 0.0
3.0 1.3 0.0
3.0 1.2 0.0
3.0 1.1 0.0
3.105031513416626 1.0 0.0
3.221094637894669 1.0 0.0
3.349348047908936 1.0 0.0
3.491072094154001 1.0 0.0
3.647681638607018 1.0 0.0
3.820740106959136 1.0 0.0
4.011975186625977 1.0 0.0
4.223295996958671 1.0 0.0
4.456812096249916 1.0 0.0
4.714854728122151 1.0 0.0
5.0 0.7500000000000003 0.0
5.0 0.5000000000000012 0.0
5.0 0.2500000000000011 0.0
4.735688545609428 0.0 0.0
4.483020449703056 0.0 0.0
4.241482811970759 0.0 0.0
4.010585416339973 0.0 0.0
3.789859502173381 0.0 0.0
3.578856991431089 0.0 0.0
3.377149540461747 0.0 0.0
3.184327696210452 0.0 0.0
2.811447335671723 0.0 0.0
2.640670715826097 0.0 0.0
2.485994303895355 0.0 0.0
2.345900211668659 0.0 0.0
2.219013677010818 0.0 0.0
2.104089529046948 0.0 0.0
2.0 0.1 0.0
2.0 0.2 0.0
2.0 0.3 0.0
2.0 0.4 0.0
2.0 0.5 0.0
2.0 0.6 0.0
2.0 0.7 0.0
2.0 0.8 0.0
2.0 0.9 0.0
1.894968486583374 1.0 0.0
1.77890536210533 1.0 0.0
1.650651952091063 1.0 0.0
1.508927905845999 1.0 0.0
1.352318361392982 1.0 0.0
1.179259893040864 1.0 0.0
0.9880248133740233 1.0 0.0
0.7767040030413299 1.0 0.0
0.5431879037500846 1.0 0.0
0.2851452718778493 1.0 0.0
0.0 1.25 0.0
0.0 1.499999999999999 0.0
0.0 1.749999999999999 0.0
2.426045913985508 1.348290599604586 0.0
2.562221387987337 0.6558377602558874 0.0
1.966703786708101 1.492474555319359 0.0
3.033486484223225 0.4973568340887861 0.0
2.371610747520728 0.97814425147097 0.0
2.648098402859118 1.648016516253387 0.0
2.351901597140882 0.3519834837466129 0.0
2.694321138879857 1.061432730999581 0.0
1.441644339445862 1.496646809257773 0.0
3.554831642064292 0.501744031268764 0.0
2.720742750697982 1.350625068836981 0.0
2.282037541072919 0.639419348257894 0.0
2.813390610951134 0.7911761792959446 0.0
2.310700631729327 1.679155452525512 0.0
2.688751528716965 0.3206838402855661 0.0
2.211165393176843 1.213708510063781 0.0
0.9449004170027906 1.496357611130017 0.0
4.05509958299721 0.5036423888699835 0.0
3.025501657200047 0.7528388163714679 0.0
1.714778657098197 1.300039655550584 0.0
1.958264922640818 1.245975101752485 0.0
2.206386339371814 0.8500000000000001 0.0
3.336706349465057 0.704398544338507 0.0
4.529565928894533 0.555233644424822 0.0
0.4704340711054673 1.444766355575178 0.0
2.186983355180128 1.461437746541105 0.0
2.553715879020142 0.8859594914241276 0.0
2.782212276375736 0.5474565156445963 0.0
2.500206140967324 1.148517546040804 0.0
2.803373162317882 1.783880361314082 0.0
2.196626837682118 0.2161196386859174 0.0
1.735623536927746 1.664129737658362 0.0
3.268802735993943 0.3358439745752063 0.0
2.799454045372581 1.51553500056848 0.0
2.18762015375897 0.4992029885790829 0.0
2.813478812948685 1.18678600527921 0.0
2.400994471757771 0.7612313552289275 0.0
2.405444563947088 0.5311203927463914 0.0
2.583195945356847 1.473216966241769 0.0
3.734210872783077 0.7260959952797862 0.0
1.256500988572085 1.265010492624376 0.0
2.938353069321001 0.2909212553641365 0.0
2.061245308362322 1.709221243241415 0.0
2.182240881432738 1.001025052084926 0.0
2.830214026212788 0.9796244234047695 0.0
2.49023894829247 1.787687811117195 0.0
2.50976105170753 0.2123121888828049 0.0
1.194806886820808 1.686899295332255 0.0
3.805193113179192 0.3131007046677451 0.0
2.655039231860651 1.208917360245127 0.0
1.493530449555064 1.231198576616718 0.0
2.345622594939228 1.152685186835846 0.0
2.41380980106708 1.521513100394759 0.0
2.58979513084283 0.4863225267637531 0.0
2.135472648094309 0.7246460081196311 0.0
2.912574128751924 0.660128736186259 0.0
2.866043013605144 1.353074765380587 0.0
0.6928324624395237 1.69170809873467 0.0
4.307167537560476 0.3082919012653306 0.0
2.071506740582853 1.128535871978767 0.0
0.6831902494895832 1.302725441792086 0.0
4.316809750510417 0.6972745582079137 0.0
2.85534466702333 1.667491236848871 0.0
2.141886244104996 0.336139391754002 0.0
1.447743165823209 1.773242752731258 0.0
3.554386585610856 0.224002072703283 0.0
2.96485662756902 0.8593908564801968 0.0
3.240425509636175 0.8099760775594669 0.0
2.088410584923666 1.339747073830609 0.0
3.277530767974837 0.4939020807639749 0.0
3.534313505233912 0.7935179117986669 0.0
2.546683861402325 1.011736398479819 0.0
2.664793655038503 0.758149595673951 0.0
2.7009922066801 0.9086021996324817 0.0
1.844652141496971 1.153158997353228 0.0
2.575910747861113 1.316876286520138 0.0
3.994328863599566 0.7454319923658932 0.0
1.005671136400434 1.254568007634107 0.0
1.722192091537185 1.482888323667831 0.0
2.644751416415203 1.850904811198953 0.0
2.355248583584797 0.1490951888010467 0.0
2.31560379269905 1.25706851182614 0.0
2.129697972466254 0.5864366202645266 0.0
2.417220568140766 0.6397160301847872 0.0
2.867945749403976 1.069821281672812 0.0
3.182303046124178 0.6739667261124369 0.0
4.702774994215813 0.2953677284017739 0.0
0.2972250057841874 1.704632271598226 0.0
2.90043748182062 0.4316738443013928 0.0
2.486081387366873 0.3514585853722887 0.0
2.513918612633127 1.648541414627711 0.0
2.086778258621772 1.563111332603502 0.0
4.025359850459486 0.2638518716814435 0.0
0.9746401495405139 1.736148128318556 0.0
3.116389458098145 0.2933651166122753 0.0
1.885410353788165 1.707062521230272 0.0
2.327134732627959 1.833634230002939 0.0
2.672865267372041 0.1663657699970617 0.0
1.675899428547673 1.15999616666306 0.0
1.858973331615206 1.373382723203102 0.0
2.860266039499884 1.862282581689995 0.0
2.139733960500116 0.1377174183100045 0.0
1.257473476073173 1.479081588926576 0.0
3.731624273377778 0.5208146070195914 0.0
2.115038607594509 0.9238947313642476 0.0
0.2734661728051435 1.270630989444945 0.0
4.726533827194856 0.7293690105550548 0.0
2.699965708650878 1.465007479364728 0.0
2.298365077320068 0.5341069340550768 0.0
2.510583000486659 0.7602856732279889 0.0
3.370667741214912 0.8392397884376295 0.0
3.067541604254986 0.8806352314757129 0.0
2.90073732483139 1.443475210354718 0.0
2.264071206758208 0.9501943312745662 0.0
2.278663096491763 0.7489636980394857 0.0
1.952511813454414 1.110576661474517 0.0
2.744352083917141 0.687787375233183 0.0
1.566252941493004 1.383661493752942 0.0
2.437660520624072 0.8703573012735125 0.0
2.904826075218911 1.261819176983655 0.0
2.305967018083784 1.391390767447104 0.0
2.105729326736999 0.8145314366030645 0.0
2.428967188976762 1.236966721617647 0.0
3.060475488407204 0.1442825789852263 0.0
1.934979199332455 1.852811714602595 0.0
2.095475260770118 0.4348597444661615 0.0
2.914777085426361 1.759093454264707 0.0
2.084827330449114 0.2414252069642749 0.0
2.207128288422204 1.315477221019454 0.0
2.658751426439581 0.5773232450959589 0.0
2.612380011409894 1.114144853433198 0.0
2.897371573983894 1.569769587751228 0.0
0.5001010519014215 1.226918930408543 0.0
4.499898948098578 0.7730810695914568 0.0
2.753086810589338 1.690362801865437 0.0
2.246793053318422 0.3097947118702842 0.0
3.391580469276819 0.5673489147038103 0.0
3.035026488699165 0.6179797538177514 0.0
2.449819864663089 1.055109427275025 0.0
2.27653308928065 1.054384468582349 0.0
2.794675693196835 1.418106589018447 0.0
2.778866980525137 1.083577784614141 0.0
2.244522876020972 0.1116738824400324 0.0
2.755477123979027 1.888326117559968 0.0
2.323887028942199 0.8604475039748537 0.0
2.204900210979926 1.747483509451062 0.0
2.794853185869193 0.2526222191943996 0.0
2.320767315286541 1.530441598510029 0.0
1.550828143561484 1.606851581022188 0.0
2.796593663741882 1.288013595743853 0.0
3.436143660897262 0.3940652474171653 0.0
2.682379445750112 0.4493639922429763 0.0
3.242313228541417 0.154845696987206 0.0
1.75965289115187 1.844031320058407 0.0
1.3642341383496 1.159631408929946 0.0
1.980047380836635 1.36362624976796 0.0
2.070303834520089 1.451946835577872 0.0
2.55866460451515 1.229901920133861 0.0
4.26844523535139 0.499131154814159 0.0
0.7315547646486098 1.500868845185841 0.0
2.716116351489881 1.570657861970705 0.0
2.283245236086922 0.4299499540566049 0.0
4.50573905238033 0.204273435313806 0.0
0.4942609476196695 1.795726564686194 0.0
3.605070352001925 0.644396355247622 0.0
3.171946621948212 0.9019117497969773 0.0
3.40309695214227 0.1789624633199048 0.0
1.59690304785773 1.821037536680094 0.0
4.776800700354217 0.5074282293075529 0.0
0.2231992996457826 1.492571770692447 0.0
1.293020597407515 1.839015256431498 0.0
3.706979402592485 0.1609847435685022 0.0
1.398281395597716 1.351857389185529 0.0
2.880181082677912 0.1378504756446906 0.0
2.119200639021148 1.861833157788504 0.0
2.408646939494887 0.2452196658480275 0.0
2.591353060505113 1.754780334151973 0.0
1.146570081566377 1.160946826906423 0.0
3.853429918433624 0.8390531730935771 0.0
2.920846657438631 1.149071660619678 0.0
2.101132283911678 1.226382957654413 0.0
2.903672483971366 0.7774662795474147 0.0
2.516386521935266 0.571665255016536 0.0
2.475412447847437 1.444413760085193 0.0
2.903041575637174 0.5510905120278109 0.0
3.666476299189054 0.8553176740217776 0.0
1.558137053653031 1.119389262041809 0.0
3.867595456948903 0.1475874639835382 0.0
1.132404543051097 1.852412536016462 0.0
2.635017655944937 0.9730281566682446 0.0
2.436667490139274 1.901171080200935 0.0
2.563332509860726 0.09882891979906516 0.0
2.091598337090247 1.040423151014485 0.0
0.8316881289508771 1.172977685150089 0.0
4.168311871049123 0.827022314849911 0.0
3.648565743761548 0.3681286963687066 0.0
1.355037313653319 1.636865536133179 0.0
2.58412781071005 1.576586299624529 0.0
2.41587218928995 0.4234137003754711 0.0
2.083716468691946 0.6634832154935376 0.0
1.843942294678346 1.256771801786488 0.0
[...]
POINT_DATA 380

VECTORS Velocity float
0.0000000000000000 0.0000000000000000 0.0
0.0000000000000000 0.0000000000000000 0.0
0.0000000000000000 0.0000000000000000 0.0
0.0000000000000000 0.0000000000000000 0.0
0.0000000000000000 0.0000000000000000 0.0
0.9186855044379191 -0.1330564242703283 0.0
0.0000000000000000 0.0000000000000000 0.0
0.0000000000000000 0.0000000000000000 0.0
0.0000000000000000 0.0000000000000000 0.0
0.0000000000000000 0.0000000000000000 0.0
0.0000000000000000 0.0000000000000000 0.0
0.0000000000000000 0.0000000000000000 0.0
0.0000000000000000 0.0000000000000000 0.0
0.0000000000000000 0.0000000000000000 0.0
0.0000000000000000 0.0000000000000000 0.0
0.0000000000000000 0.0000000000000000 0.0
0.0000000000000000 0.0000000000000000 0.0
0.0000000000000000 0.0000000000000000 0.0
0.0000000000000000 0.0000000000000000 0.0
0.0000000000000000 0.0000000000000000 0.0
0.0000000000000000 0.0000000000000000 0.0
0.0000000000000000 0.0000000000000000 0.0
0.0000000000000000 0.0000000000000000 0.0
0.0000000000000000 0.0000000000000000 0.0
0.0000000000000000 0.0000000000000000 0.0
0.0000000000000000 0.0000000000000000 0.0
0.0000000000000000 0.0000000000000000 0.0
0.0000000000000000 0.0000000000000000 0.0
0.0000000000000000 0.0000000000000000 0.0
0.0000000000000000 0.0000000000000000 0.0
0.0000000000000000 0.0000000000000000 0.0
0.0000000000000000 0.0000000000000000 0.0
0.0000000000000000 0.0000000000000000 0.0
0.0000000000000000 0.0000000000000000 0.0
0.0000000000000000 0.0000000000000000 0.0
0.0000000000000000 0.0000000000000000 0.0
0.0000000000000000 0.0000000000000000 0.0
0.0000000000000000 0.0000000000000000 0.0
0.0000000000000000 0.0000000000000000 0.0
0.0000000000000000 0.0000000000000000 0.0
0.0000000000000000 0.0000000000000000 0.0
0.0000000000000000 0.0000000000000000 0.0
0.0000000000000000 0.0000000000000000 0.0
1.1551840516450640 0.3642052702212543 0.0
0.7957331975430076 0.0634074900381891 0.0
1.1395806530083388 -0.2965142735314643 0.0
0.0000000000000000 0.0000000000000000 0.0
0.0000000000000000 0.0000000000000000 0.0
0.0000000000000000 0.0000000000000000 0.0
0.0000000000000000 0.0000000000000000 0.0
0.0000000000000000 0.0000000000000000 0.0
0.0000000000000000 0.0000000000000000 0.0
0.0000000000000000 0.0000000000000000 0.0
0.0000000000000000 0.0000000000000000 0.0
0.0000000000000000 0.0000000000000000 0.0
0.0000000000000000 0.0000000000000000 0.0
0.0000000000000000 0.0000000000000000 0.0
0.0000000000000000 0.0000000000000000 0.0
0.0000000000000000 0.0000000000000000 0.0
0.0000000000000000 0.0000000000000000 0.0
0.0000000000000000 0.0000000000000000 0.0
0.0000000000000000 0.0000000000000000 0.0
0.0000000000000000 0.0000000000000000 0.0
0.0000000000000000 0.0000000000000000 0.0
0.0000000000000000 0.0000000000000000 0.0
0.0000000000000000 0.0000000000000000 0.0
0.0000000000000000 0.0000000000000000 0.0
0.0000000000000000 0.0000000000000000 0.0
0.0000000000000000 0.0000000000000000 0.0
0.0000000000000000 0.0000000000000000 0.0
0.0000000000000000 0.0000000000000000 0.0
0.0000000000000000 0.0000000000000000 0.0
0.0000000000000000 0.0000000000000000 0.0
0.0000000000000000 0.0000000000000000 0.0
0.0000000000000000 0.0000000000000000 0.0
0.0000000000000000 0.0000000000000000 0.0
0.0000000000000000 0.0000000000000000 0.0
0.0000000000000000 0.0000000000000000 0.0
0.0000000000000000 0.0000000000000000 0.0
1.0000000000000000 0.0000000000000000 0.0
1.0000000000000000 0.0000000000000000 0.0
1.0000000000000000 0.0000000000000000 0.0
0.9199959034412433 -0.8254731910996205 0.0
0.8047930522004683 -0.8479697746501863 0.0
1.5159237602903466 -0.2569141288318740 0.0
1.4585105181172298 -0.2525107279628649 0.0
0.5876400903987111 -1.1954698565744684 0.0
0.2697929005162759 -0.2064150471764339 0.0
0.2306739505179009 -0.1964997992999498 0.0
0.5729356878415373 -1.2177985939129579 0.0
1.5744459391899233 -0.0766360423746704 0.0
1.6112366985507607 -0.1194811836829580 0.0
0.2746583767620430 -0.6927973519439458 0.0
0.2532211651498533 -0.6110184363928762 0.0
1.1603819070371613 -0.9926609840753591 0.0
0.7041897963415783 -0.2025185499399330 0.0
0.6636387061663789 -0.1892538054361299 0.0
1.1575116123083493 -0.9020044022011154 0.0
1.6001415703865058 -0.0194533970204962 0.0
1.5975301546958387 -0.0090322821369774 0.0
1.4943207395121674 -0.3515196147231139 0.0
1.5001490889703593 -0.0595422456900624 0.0
1.4366915231851534 -0.3122685687520074 0.0
0.2563087194037248 -0.8300577110342786 0.0
1.5170235116494850 -0.0675064155019589 0.0
1.5836378010420702 0.0097146910460151 0.0
1.5334877208951829 0.0359650549202610 0.0
1.2860178935721833 -0.4980051401053142 0.0
0.6929371046409776 -1.1893879247110002 0.0
1.1839208131380319 -0.4534696137984164 0.0
0.6836493671640742 -1.1994400975297388 0.0
0.0553020656691956 -0.0667795001299647 0.0
0.0456587530641837 -0.0580109833399074 0.0
1.1906768465659463 -0.0817396247660724 0.0
1.1145042166201506 -0.0923057573575351 0.0
0.1099031876362278 -0.3245438635233667 0.0
0.0790813840118420 -0.2627754085621922 0.0
0.1730624190879134 -0.7482202265363755 0.0
0.4926885421816800 -0.9702254285945398 0.0
0.4568274252511438 -0.5574880658738962 0.0
0.5272188242621478 -0.5622056330224112 0.0
1.3926325592109654 -0.0122551803430818 0.0
1.3074262020405423 -0.0808297660154239 0.0
0.8081912663130107 -0.1284135241138607 0.0
0.8769170114443537 -0.1308710985683428 0.0
0.5558989008052607 -0.9873962050535341 0.0
0.6235380055813847 -1.0972295146783153 0.0
0.2994239416440527 -0.0342128394984483 0.0
0.2774713302773506 -0.0387021828903767 0.0
1.2774103854284860 0.0118043173241309 0.0
1.2780368275546077 0.0078411695677655 0.0
0.4651958962316396 -1.0508522141590295 0.0
1.2568804124989934 0.0014173772187365 0.0
0.8795426306898992 -1.0937175070144787 0.0
0.7845747403289214 -0.4781063442648581 0.0
0.7957793583956982 -0.5185744182690153 0.0
0.0280560025812974 -0.3603208551093673 0.0
1.5069726365531382 -0.5465824891737543 0.0
0.0640917011555859 -0.3897238129802273 0.0
1.3446583690032301 0.0064632395173612 0.0
1.3450541701796670 0.0148946256375666 0.0
1.0975577493721218 -0.7416109565359373 0.0
1.3761529697048949 -0.0384013340266938 0.0
1.3735337381318520 -0.0565420549565185 0.0
0.0466856133657954 -0.1142626979976660 0.0
0.0405611628524338 -0.0971434538730931 0.0
0.7916210102654868 -0.0087829215487806 0.0
0.7748507205272052 -0.0272020295981673 0.0
1.2401187799034337 -0.5660420143850776 0.0
1.2444373270026619 -0.1006346849579279 0.0
1.4490121077319298 -0.5566043121607337 0.0
1.5355474290376150 -0.0928287218559997 0.0
1.2086731808139086 -0.0645754681916648 0.0
0.6606523496777170 -1.2543017788488653 0.0
0.9425805627555386 -0.9667871129803457 0.0
0.8051346640918896 -1.2373407614700638 0.0
1.0714618880632383 -0.0576127438397426 0.0
0.5944562304862306 -0.8993344326806132 0.0
1.0658743138951516 -0.0516750665778297 0.0
1.0677101836837388 -0.0525827982622656 0.0
1.5793852786645142 -0.0669946713502765 0.0
0.0932989997824086 -0.0384575919084502 0.0
0.0826381701875839 -0.0356216894627919 0.0
1.0466469669947815 -0.9118183322670993 0.0
0.0418702706103569 -0.1940591746140516 0.0
0.4857568983881160 -0.7449789572180865 0.0
0.2454885958260860 -0.7779462242512081 0.0
1.5661707540950496 -0.1618432751642040 0.0
1.2290295180327122 -0.2189203040483118 0.0
1.2102330606254832 -0.2003357964312175 0.0
1.1885646316018366 -0.2681446139278468 0.0
0.4094709283919849 -0.2248367773839260 0.0
0.4466689073465437 -0.2204040031065961 0.0
1.2708979104225773 -0.2944976962010744 0.0
1.0451305324899689 -0.0265586253524347 0.0
1.0430568611013900 -0.0273968928267502 0.0
0.9380849279458429 -0.1124601809662469 0.0
1.0128353830886678 -0.1172115694883511 0.0
0.2721756295554996 -0.0526492012849303 0.0
0.2605292901131703 -0.0490693363592377 0.0
0.8354586603256915 -0.0187477441635957 0.0
1.5826005520124014 -0.1504772490339032 0.0
0.0115444088075766 -0.0180009607733977 0.0
0.0092263290893663 -0.0151554313848718 0.0
1.5372832184097831 -0.0975969998966015 0.0
1.5698457403450932 -0.1286425485997952 0.0
0.1394969411858275 -0.4908691271307761 0.0
1.0959998949061107 0.2306165657964686 0.0
1.0936578654885587 0.2310841394104246 0.0
0.2763118954677777 -0.5107383153638146 0.0
0.2323434934426737 -0.4410812771783653 0.0
0.6732275570300187 -1.0476120423225124 0.0
0.9315095647039385 -0.0545984773292229 0.0
0.8780372868122894 -0.1765459462717756 0.0
0.0362358645622087 -0.1836262725142337 0.0
0.4699611329991806 -1.1016001709438792 0.0
0.2650827663833197 -0.8316965338910667 0.0
0.7793285112462184 -0.1234593687477483 0.0
1.1551121532421529 -0.8061455373315444 0.0
1.5613116725950129 -0.0492273577730438 0.0
0.5756851017558032 -1.1498011152493819 0.0
0.0304776656422967 -0.3161941825623618 0.0
1.1223924896670554 -0.6772325990317378 0.0
0.0691078393989148 -0.2930011292085491 0.0
0.8168504370836235 -1.0596194475177223 0.0
0.4059351362316935 -0.0212982057018712 0.0
0.4314570420007492 -0.0191437399793284 0.0
0.0377447175217896 -0.0932170545488166 0.0
0.0166165174159556 -0.0314686211830189 0.0
0.0135928634432217 -0.0261785089643170 0.0
1.2903387734300349 -0.7657078360289019 0.0
0.9809900214358900 -0.6551116528731749 0.0
0.5944103964036010 -1.1967475771052429 0.0
0.0258055806662015 -0.1171611428457354 0.0
0.8659940081228000 0.1645790822203302 0.0
0.8386837502083383 0.1312694214745073 0.0
0.1409388817384662 -0.1686221491724829 0.0
0.1197846425457546 -0.1496260098131238 0.0
1.6434445605990116 -0.1220628075526411 0.0
1.6065733967887590 -0.3179594932739103 0.0
0.6729584320531066 -1.2453591229037038 0.0
0.7087239081542811 -1.1344599358653800 0.0
0.1390751770203841 -0.4252718414811810 0.0
0.4213550249686139 -1.0670942340090466 0.0
0.0299938358487093 -0.0245453317660207 0.0
0.0351253942824742 -0.0277273483419608 0.0
0.4559854127120971 -1.0592759607934290 0.0
0.6497889637178597 -0.1380569243445911 0.0
0.6076597894646136 -0.1228367571134601 0.0
0.9988964187735261 -0.4408611373248952 0.0
1.3584703585474036 -0.0299527142717754 0.0
0.1586487675428120 -0.5974106442712636 0.0
1.3021411501060485 -0.0656715719500562 0.0
0.9450304433783155 -0.4150243679620984 0.0
0.5009870889753163 -0.0333408256113380 0.0
0.5283246471854558 -0.0360859148864989 0.0
0.8945283484915296 -0.0193867721959168 0.0
1.5421485032668352 -0.3429437306618849 0.0
1.4746072964541055 -0.4073148577426464 0.0
0.5932198038412559 -1.0733081743248520 0.0
1.6000770109172415 -0.0535617824971347 0.0
1.5899133467121884 -0.0450628137181970 0.0
0.2084929277657548 -0.3031721643920496 0.0
0.1767127799901593 -0.2732323605081935 0.0
0.7799644844090682 -0.1433731755878589 0.0
0.8008280420330868 -0.1598514705529319 0.0
1.5608547248901554 -0.0774841997449309 0.0
0.5605370185876400 -0.0557723052345902 0.0
0.6307980397968220 -0.0793341050621162 0.0
0.6584140864259197 -0.0804212292381297 0.0
1.2611512525872841 0.0575297513607657 0.0
1.2108939557017515 0.0466657328854853 0.0
0.6383252602877968 0.0332999462053930 0.0
0.6385264334609073 0.0301798823188142 0.0
1.4570228778637160 -0.0515957755172601 0.0
0.3104404321733065 -0.0556628844643723 0.0
0.3313587710914014 -0.0602058434909755 0.0
0.2223504452575736 -0.1151392111873835 0.0
0.2457710266563319 -0.1189607946142432 0.0
0.7327669139690002 0.0586947065596545 0.0
0.7341567722880868 0.1057400473985250 0.0
0.0439799327722489 -0.3492449605451316 0.0
1.3144734793367823 -0.7009244679719595 0.0
1.3476003327770345 -0.7287072180003501 0.0
0.6754010464879322 -0.6771075260340191 0.0
0.7781990942654695 -0.6141257894497884 0.0
1.4349986806882435 -0.4214887243155206 0.0
0.6077986551697931 0.0249026226989369 0.0
0.6292857378859825 -0.0158316463906022 0.0
0.5364341844377160 -0.1093073610413731 0.0
0.5388967560946708 -0.1068499105978614 0.0
0.6878543562821279 -1.2675734339698084 0.0
0.0933912545154774 -0.0253864207954680 0.0
0.0871684876464501 -0.0261706825991724 0.0
0.5666757196927358 -0.7119202576573781 0.0
0.6719732493866711 -0.0978915582038506 0.0
0.6705200941517991 -0.1057322578320474 0.0
1.3072342890007351 -0.1409822650590033 0.0
1.3137351096394196 -0.1130889058757594 0.0
0.4568275724828989 -0.3326145075655900 0.0
0.3918664162537084 -0.3277305805765980 0.0
0.0030021301013409 -0.1538728252788045 0.0
1.3671960830198058 -0.1412473578394963 0.0
0.6053562408677556 -0.7800848252158016 0.0
0.1141959496786445 -0.4156386262454885 0.0
0.4361571296800074 -0.7427008992622118 0.0
0.9759298231829677 -0.9522807499877123 0.0
0.9025139373180870 -1.1441365587465879 0.0
1.4972415419521412 -0.0657793033743751 0.0
1.4928076206789120 -0.0968327940762140 0.0
0.6524013109753256 -1.2240476136314031 0.0
1.0488277689156473 -0.2777055317908103 0.0
0.9947150812742928 -0.2258778929665184 0.0
0.5047855277022059 -0.1699627546528874 0.0
0.4819697711670931 -0.1747900623680561 0.0
1.5611107982793448 -0.1086678697075994 0.0
0.9979411385347665 -1.1014361921604898 0.0
0.4183629729618706 -1.0705556736372350 0.0
1.2132555916829773 -0.1679145772185952 0.0
1.5661548748539160 -0.0922712067520708 0.0
1.5756579974741600 -0.0975777229168280 0.0
1.2895557582740618 -0.1700788698903134 0.0
0.0935307859124996 -0.0115726828868101 0.0
0.1026530381421003 -0.0099406485644318 0.0
0.4210029872820606 0.0685489831227662 0.0
1.3631925566283010 -0.1372741422816081 0.0
1.3206683307964358 0.0369210890452306 0.0
0.4422045828170235 -0.9161674882806249 0.0
0.1043514732108537 -0.2257502037829996 0.0
0.0832365284997513 -0.1885660155240518 0.0
0.1448825455062467 -0.0846308675765473 0.0
0.1263461428118169 -0.0774784599652085 0.0
0.3702688855869039 -0.6529952471774382 0.0
0.0093046405990336 -0.1139916823317683 0.0
0.9224354628844148 -0.8867775477642121 0.0
0.5211332447979324 0.0366104150270754 0.0
0.5040837127577605 0.0190457767146537 0.0
1.4811554892121592 -0.0482979777531814 0.0
1.4811047717168770 -0.0598861750053559 0.0
0.9510564224367876 -1.0765754674415595 0.0
1.6050235285800374 -0.1656539102398863 0.0
0.4300665965710100 -0.0485877392043370 0.0
0.0153630416431145 -0.0393717333302775 0.0
0.0106415538595473 -0.0329345538983898 0.0
0.3762197418005521 -0.8145467705470651 0.0
0.0182940909463991 -0.1030618822733488 0.0
0.7334975158571622 -0.9604706077936095 0.0
1.4532179017904352 -0.1382721599625949 0.0
0.6426384333140424 -0.4322641181104721 0.0
0.5943341829505027 -0.4465422905732441 0.0
0.6392607707570332 -1.2292618734064800 0.0
0.6699206015888506 0.0780931584296400 0.0
0.6672156339781032 0.0808117865578698 0.0
0.7991662520401809 -1.1782267460721829 0.0
0.1294031325703248 -0.5910381939998184 0.0
0.1091302836156032 -0.4602431432303821 0.0
0.0093694522953882 -0.1105348652304493 0.0
0.8421354543505678 0.0649304736645132 0.0
0.8047674997853861 0.0969110634699064 0.0
0.8330142523357152 -0.0507553647005519 0.0
0.8045786267212519 -0.0670162294154557 0.0
0.3173582511871197 -0.8819061606139933 0.0
0.6384755945992875 -0.1467541178245406 0.0
0.7859557471732240 -1.0427196004664272 0.0
1.3724768013985069 -0.7758389817055058 0.0
0.5310081612678814 0.0849688189701881 0.0
1.4804046623498281 -0.0121396625702560 0.0
1.4842526089676538 -0.0081136771395955 0.0
1.0385086739334819 -0.9914447970311464 0.0
0.7444037422520209 -1.1983231038036908 0.0
1.3249127897692743 -0.1527457029643109 0.0
0.7167255484419364 -1.2161170765219804 0.0
0.0857300738792198 -0.3894256018994261 0.0
1.1775434786155790 -0.0526147068658606 0.0
0.3742008919812768 -0.9143962062523824 0.0
1.6557665842065752 -0.0901416770433861 0.0
0.4119424087890876 -0.0053095740204782 0.0
1.5813139977534836 -0.0860849159432838 0.0
1.5503843633796910 -0.0992785357391125 0.0
-0.0057609829839434 -0.0012245122558611 0.0
-0.0061880546272852 -0.0015361471021809 0.0
0.5346875510823919 0.0429046579767146 0.0
0.3411612375218190 -0.0429846502721393 0.0
-0.0029093989851570 -0.0057779611896135 0.0
-0.0027322460878051 -0.0067385682381477 0.0
0.5567509416659280 -0.0346149525423082 0.0
0.6409370042750711 -0.9090767548112100 0.0
0.5591461772979047 -0.0341125954248237 0.0
0.5533263129890930 -0.0270487247450623 0.0
0.6838486625075753 -0.3227165958982436 0.0
0.7373701600821321 -0.3199743339340235 0.0
0.6420553604416350 -0.7937426555583910 0.0
0.2956156868060192 -0.3895382874547798 0.0
0.3437480545336194 -0.4344183268490132 0.0
-0.0054730180757587 -0.0033027424347007 0.0
-0.0053113533429730 -0.0027231164649007 0.0
1.2787222210338105 -0.4594757214278635 0.0
1.3592280915006754 -0.6529254863064384 0.0
0.9485412562373127 -0.6358545165662357 0.0
0.7411396492633449 -0.4250401891948998 0.0
