# vtk DataFile Version 3.0
LucasCarvalhoTCC Results
ASCII

DATASET POLYDATA
FIELD FieldData 1
TIME 1 1 double
2.4000000000000004

POINTS 380 float
0.0 2.0 0.0
2.0 2.0 0.0
3.0 2.0 0.0
3.0 1.0 0.0
5.0 1.0 0.0
5.0 0.0 0.0
3.0 0.0 0.0
2.0 0.0 0.0
2.0 1.0 0.0
0.0 1.0 0.0
0.2643114543905713 2.0 0.0
0.5169795502969444 2.0 0.0
0.7585171880292413 2.0 0.0
0.9894145836600268 2.0 0.0
1.210140497826619 2.0 0.0
1.421143008568911 2.0 0.0
1.622850459538253 2.0 0.0
1.815672303789548 2.0 0.0
2.188552664328277 2.0 0.0
2.359329284173903 2.0 0.0
2.514005696104645 2.0 0.0
2.654099788331341 2.0 0.0
2.780986322989182 2.0 0.0
2.895910470953052 2.0 0.0
3.0 1.9 0.0
3.0 1.8 0.0
3.0 1.7 0.0
3.0 1.6 0.0
3.0 1.5 0.0
3.0 1.4 0.0
3.0 1.3 0.0
3.0 1.2 0.0
3.0 1.1 0.0
3.105031513416626 1.0 0.0
3.221094637894669 1.0 0.0
3.349348047908936 1.0 0.0
3.491072094154001 1.0 0.0
3.647681638607018 1.0 0.0
3.820740106959136 1.0 0.0
4.011975186625977 1.0 0.0
4.223295996958671 1.0 0.0
4.456812096249916 1.0 0.0
4.714854728122151 1.0 0.0
5.0 0.7500000000000003 0.0
5.0 0.5000000000000012 0.0
5.0 0.2500000000000011 0.0
4.735688545609428 0.0 0.0
4.483020449703056 0.0 0.0
4.241482811970759 0.0 0.0
4.010585416339973 0.0 0.0
3.789859502173381 0.0 0.0
3.578856991431089 0.0 0.0
3.377149540461747 0.0 0.0
3.184327696210452 0.0 0.0
2.811447335671723 0.0 0.0
2.640670715826097 0.0 0.0
2.485994303895355 0.0 0.0
2.345900211668659 0.0 0.0
2.219013677010818 0.0 0.0
2.104089529046948 0.0 0.0
2.0 0.1 0.0
2.0 0.2 0.0
2.0 0.3 0.0
2.0 0.4 0.0
2.0 0.5 0.0
2.0 0.6 0.0
2.0 0.7 0.0
2.0 0.8 0.0
2.0 0.9 0.0
1.894968486583374 1.0 0.0
1.77890536210533 1.0 0.0
1.650651952091063 1.0 0.0
1.508927905845999 1.0 0.0
1.352318361392982 1.0 0.0
1.179259893040864 1.0 0.0
0.9880248133740233 1.0 0.0
0.7767040030413299 1.0 0.0
0.5431879037500846 1.0 0.0
0.2851452718778493 1.0 0.0
0.0 1.25 0.0
0.0 1.499999999999999 0.0
0.0 1.749999999999999 0.0
2.426045913985508 1.348290599604586 0.0
2.562221387987337 0.6558377602558874 0.0
1.966703786708101 1.492474555319359 0.0
3.033486484223225 0.4973568340887861 0.0
2.371610747520728 0.97814425147097 0.0
2.648098402859118 1.648016516253387 0.0
2.351901597140882 0.3519834837466129 0.0
2.694321138879857 1.061432730999581 0.0
1.441644339445862 1.496646809257773 0.0
3.554831642064292 0.501744031268764 0.0
2.720742750697982 1.350625068836981 0.0
2.282037541072919 0.639419348257894 0.0
2.813390610951134 0.7911761792959446 0.0
2.310700631729327 1.679155452525512 0.0
2.688751528716965 0.3206838402855661 0.0
2.211165393176843 1.213708510063781 0.0
0.9449004170027906 1.496357611130017 0.0
4.05509958299721 0.5036423888699835 0.0
3.025501657200047 0.7528388163714679 0.0
1.714778657098197 1.300039655550584 0.0
1.958264922640818 1.245975101752485 0.0
2.206386339371814 0.8500000000000001 0.0
3.336706349465057 0.704398544338507 0.0
4.529565928894533 0.555233644424822 0.0
0.4704340711054673 1.444766355575178 0.0
2.186983355180128 1.461437746541105 0.0
2.553715879020142 0.8859594914241276 0.0
2.782212276375736 0.5474565156445963 0.0
2.500206140967324 1.148517546040804 0.0
2.803373162317882 1.783880361314082 0.0
2.196626837682118 0.2161196386859174 0.0
1.735623536927746 1.664129737658362 0.0
3.268802735993943 0.3358439745752063 0.0
2.799454045372581 1.51553500056848 0.0
2.18762015375897 0.4992029885790829 0.0
2.813478812948685 1.18678600527921 0.0
2.400994471757771 0.7612313552289275 0.0
2.405444563947088 0.5311203927463914 0.0
2.583195945356847 1.473216966241769 0.0
3.734210872783077 0.7260959952797862 0.0
1.256500988572085 1.265010492624376 0.0
2.938353069321001 0.2909212553641365 0.0
2.061245308362322 1.709221243241415 0.0
2.182240881432738 1.001025052084926 0.0
2.830214026212788 0.9796244234047695 0.0
2.49023894829247 1.787687811117195 0.0
2.50976105170753 0.2123121888828049 0.0
1.194806886820808 1.686899295332255 0.0
3.805193113179192 0.3131007046677451 0.0
2.655039231860651 1.208917360245127 0.0
1.493530449555064 1.231198576616718 0.0
2.345622594939228 1.152685186835846 0.0
2.41380980106708 1.521513100394759 0.0
2.58979513084283 0.4863225267637531 0.0
2.135472648094309 0.7246460081196311 0.0
2.912574128751924 0.660128736186259 0.0
2.866043013605144 1.353074765380587 0.0
0.6928324624395237 1.69170809873467 0.0
4.307167537560476 0.3082919012653306 0.0
2.071506740582853 1.128535871978767 0.0
0.6831902494895832 1.302725441792086 0.0
4.316809750510417 0.6972745582079137 0.0
2.85534466702333 1.667491236848871 0.0
2.141886244104996 0.336139391754002 0.0
1.447743165823209 1.773242752731258 0.0
3.554386585610856 0.224002072703283 0.0
2.96485662756902 0.8593908564801968 0.0
3.240425509636175 0.8099760775594669 0.0
2.088410584923666 1.339747073830609 0.0
3.277530767974837 0.4939020807639749 0.0
3.534313505233912 0.7935179117986669 0.0
2.546683861402325 1.011736398479819 0.0
2.664793655038503 0.758149595673951 0.0
2.7009922066801 0.9086021996324817 0.0
1.844652141496971 1.153158997353228 0.0
2.575910747861113 1.316876286520138 0.0
3.994328863599566 0.7454319923658932 0.0
1.005671136400434 1.254568007634107 0.0
1.722192091537185 1.482888323667831 0.0
2.644751416415203 1.850904811198953 0.0
2.355248583584797 0.1490951888010467 0.0
2.31560379269905 1.25706851182614 0.0
2.129697972466254 0.5864366202645266 0.0
2.417220568140766 0.6397160301847872 0.0
2.867945749403976 1.069821281672812 0.0
3.182303046124178 0.6739667261124369 0.0
4.702774994215813 0.2953677284017739 0.0
0.2972250057841874 1.704632271598226 0.0
2.90043748182062 0.4316738443013928 0.0
2.486081387366873 0.3514585853722887 0.0
2.513918612633127 1.648541414627711 0.0
2.086778258621772 1.563111332603502 0.0
4.025359850459486 0.2638518716814435 0.0
0.9746401495405139 1.736148128318556 0.0
3.116389458098145 0.2933651166122753 0.0
1.885410353788165 1.707062521230272 0.0
2.327134732627959 1.833634230002939 0.0
2.672865267372041 0.1663657699970617 0.0
1.675899428547673 1.15999616666306 0.0
1.858973331615206 1.373382723203102 0.0
2.860266039499884 1.862282581689995 0.0
2.139733960500116 0.1377174183100045 0.0
1.257473476073173 1.479081588926576 0.0
3.731624273377778 0.5208146070195914 0.0
2.115038607594509 0.9238947313642476 0.0
0.2734661728051435 1.270630989444945 0.0
4.726533827194856 0.7293690105550548 0.0
2.699965708650878 1.465007479364728 0.0
2.298365077320068 0.5341069340550768 0.0
2.510583000486659 0.7602856732279889 0.0
3.370667741214912 0.8392397884376295 0.0
3.067541604254986 0.8806352314757129 0.0
2.90073732483139 1.443475210354718 0.0
2.264071206758208 0.9501943312745662 0.0
2.278663096491763 0.7489636980394857 0.0
1.952511813454414 1.110576661474517 0.0
2.744352083917141 0.687787375233183 0.0
1.566252941493004 1.383661493752942 0.0
2.437660520624072 0.8703573012735125 0.0
2.904826075218911 1.261819176983655 0.0
2.305967018083784 1.391390767447104 0.0
2.105729326736999 0.8145314366030645 0.0
2.428967188976762 1.236966721617647 0.0
3.060475488407204 0.1442825789852263 0.0
1.934979199332455 1.852811714602595 0.0
2.095475260770118 0.4348597444661615 0.0
2.914777085426361 1.759093454264707 0.0
2.084827330449114 0.2414252069642749 0.0
2.207128288422204 1.315477221019454 0.0
2.658751426439581 0.5773232450959589 0.0
2.612380011409894 1.114144853433198 0.0
2.897371573983894 1.569769587751228 0.0
0.5001010519014215 1.226918930408543 0.0
4.499898948098578 0.7730810695914568 0.0
2.753086810589338 1.690362801865437 0.0
2.246793053318422 0.3097947118702842 0.0
3.391580469276819 0.5673489147038103 0.0
3.035026488699165 0.6179797538177514 0.0
2.449819864663089 1.055109427275025 0.0
2.27653308928065 1.054384468582349 0.0
2.794675693196835 1.418106589018447 0.0
2.778866980525137 1.083577784614141 0.0
2.244522876020972 0.1116738824400324 0.0
2.755477123979027 1.888326117559968 0.0
2.323887028942199 0.8604475039748537 0.0
2.204900210979926 1.747483509451062 0.0
2.794853185869193 0.2526222191943996 0.0
2.320767315286541 1.530441598510029 0.0
1.550828143561484 1.606851581022188 0.0
2.796593663741882 1.288013595743853 0.0
3.436143660897262 0.3940652474171653 0.0
2.682379445750112 0.4493639922429763 0.0
3.242313228541417 0.154845696987206 0.0
1.75965289115187 1.844031320058407 0.0
1.3642341383496 1.159631408929946 0.0
1.980047380836635 1.36362624976796 0.0
2.070303834520089 1.451946835577872 0.0
2.55866460451515 1.229901920133861 0.0
4.26844523535139 0.499131154814159 0.0
0.7315547646486098 1.500868845185841 0.0
2.716116351489881 1.570657861970705 0.0
2.283245236086922 0.4299499540566049 0.0
4.50573905238033 0.204273435313806 0.0
0.4942609476196695 1.795726564686194 0.0
3.605070352001925 0.644396355247622 0.0
3.171946621948212 0.9019117497969773 0.0
3.40309695214227 0.1789624633199048 0.0
1.59690304785773 1.821037536680094 0.0
4.776800700354217 0.5074282293075529 0.0
0.2231992996457826 1.492571770692447 0.0
1.293020597407515 1.839015256431498 0.0
3.706979402592485 0.1609847435685022 0.0
1.398281395597716 1.351857389185529 0.0
2.880181082677912 0.1378504756446906 0.0
2.119200639021148 1.861833157788504 0.0
2.408646939494887 0.2452196658480275 0.0
2.591353060505113 1.754780334151973 0.0
1.146570081566377 1.160946826906423 0.0
3.853429918433624 0.8390531730935771 0.0
2.920846657438631 1.149071660619678 0.0
2.101132283911678 1.226382957654413 0.0
2.903672483971366 0.7774662795474147 0.0
2.516386521935266 0.571665255016536 0.0
2.475412447847437 1.444413760085193 0.0
2.903041575637174 0.5510905120278109 0.0
3.666476299189054 0.8553176740217776 0.0
1.558137053653031 1.119389262041809 0.0
3.867595456948903 0.1475874639835382 0.0
1.132404543051097 1.852412536016462 0.0
2.635017655944937 0.9730281566682446 0.0
2.436667490139274 1.901171080200935 0.0
2.563332509860726 0.09882891979906516 0.0
2.091598337090247 1.040423151014485 0.0
0.8316881289508771 1.172977685150089 0.0
4.168311871049123 0.827022314849911 0.0
3.648565743761548 0.3681286963687066 0.0
1.355037313653319 1.636865536133179 0.0
2.58412781071005 1.576586299624529 0.0
2.41587218928995 0.4234137003754711 0.0
2.083716468691946 0.6634832154935376 0.0
1.843942294678346 1.256771801786488 0.0
[...]
POINT_DATA 380

VECTORS Velocity float
0.0000000000000000 0.0000000000000000 0.0
0.0000000000000000 0.0000000000000000 0.0
0.0000000000000000 0.0000000000000000 0.0
0.0000000000000000 0.0000000000000000 0.0
0.0000000000000000 0.0000000000000000 0.0
0.9186866677506319 -0.1330175290414172 0.0
0.0000000000000000 0.0000000000000000 0.0
0.0000000000000000 0.0000000000000000 0.0
0.0000000000000000 0.0000000000000000 0.0
0.0000000000000000 0.0000000000000000 0.0
0.0000000000000000 0.0000000000000000 0.0
0.0000000000000000 0.0000000000000000 0.0
0.0000000000000000 0.0000000000000000 0.0
0.0000000000000000 0.0000000000000000 0.0
0.0000000000000000 0.0000000000000000 0.0
0.0000000000000000 0.0000000000000000 0.0
0.0000000000000000 0.0000000000000000 0.0
0.0000000000000000 0.0000000000000000 0.0
0.0000000000000000 0.0000000000000000 0.0
0.0000000000000000 0.0000000000000000 0.0
0.0000000000000000 0.0000000000000000 0.0
0.0000000000000000 0.0000000000000000 0.0
0.0000000000000000 0.0000000000000000 0.0
0.0000000000000000 0.0000000000000000 0.0
0.0000000000000000 0.0000000000000000 0.0
0.0000000000000000 0.0000000000000000 0.0
0.0000000000000000 0.0000000000000000 0.0
0.0000000000000000 0.0000000000000000 0.0
0.0000000000000000 0.0000000000000000 0.0
0.0000000000000000 0.0000000000000000 0.0
0.0000000000000000 0.0000000000000000 0.0
0.0000000000000000 0.0000000000000000 0.0
0.0000000000000000 0.0000000000000000 0.0
0.0000000000000000 0.0000000000000000 0.0
0.0000000000000000 0.0000000000000000 0.0
0.0000000000000000 0.0000000000000000 0.0
0.0000000000000000 0.0000000000000000 0.0
0.0000000000000000 0.0000000000000000 0.0
0.0000000000000000 0.0000000000000000 0.0
0.0000000000000000 0.0000000000000000 0.0
0.0000000000000000 0.0000000000000000 0.0
0.0000000000000000 0.0000000000000000 0.0
0.0000000000000000 0.0000000000000000 0.0
1.1553055596505388 0.3637011159830262 0.0
0.7957421457057614 0.0625122947752142 0.0
1.1394700697024120 -0.2970208663843567 0.0
0.0000000000000000 0.0000000000000000 0.0
0.0000000000000000 0.0000000000000000 0.0
0.0000000000000000 0.0000000000000000 0.0
0.0000000000000000 0.0000000000000000 0.0
0.0000000000000000 0.0000000000000000 0.0
0.0000000000000000 0.0000000000000000 0.0
0.0000000000000000 0.0000000000000000 0.0
0.0000000000000000 0.0000000000000000 0.0
0.0000000000000000 0.0000000000000000 0.0
0.0000000000000000 0.0000000000000000 0.0
0.0000000000000000 0.0000000000000000 0.0
0.0000000000000000 0.0000000000000000 0.0
0.0000000000000000 0.0000000000000000 0.0
0.0000000000000000 0.0000000000000000 0.0
0.0000000000000000 0.0000000000000000 0.0
0.0000000000000000 0.0000000000000000 0.0
0.0000000000000000 0.0000000000000000 0.0
0.0000000000000000 0.0000000000000000 0.0
0.0000000000000000 0.0000000000000000 0.0
0.0000000000000000 0.0000000000000000 0.0
0.0000000000000000 0.0000000000000000 0.0
0.0000000000000000 0.0000000000000000 0.0
0.0000000000000000 0.0000000000000000 0.0
0.0000000000000000 0.0000000000000000 0.0
0.0000000000000000 0.0000000000000000 0.0
0.0000000000000000 0.0000000000000000 0.0
0.0000000000000000 0.0000000000000000 0.0
0.0000000000000000 0.0000000000000000 0.0
0.0000000000000000 0.0000000000000000 0.0
0.0000000000000000 0.0000000000000000 0.0
0.0000000000000000 0.0000000000000000 0.0
0.0000000000000000 0.0000000000000000 0.0
0.0000000000000000 0.0000000000000000 0.0
1.0000000000000000 0.0000000000000000 0.0
1.0000000000000000 0.0000000000000000 0.0
1.0000000000000000 0.0000000000000000 0.0
0.8707076233075588 -0.7551549389517787 0.0
0.7682357875842492 -0.7671824817634845 0.0
1.4881212655178646 -0.2594274001673437 0.0
1.4294953548576985 -0.2578855766892220 0.0
0.5739373906546111 -1.1514986934532092 0.0
0.3178049818054289 -0.2023993581126714 0.0
0.2824567469624016 -0.2013672635930056 0.0
0.5571335420337512 -1.1865324964287609 0.0
1.5722146116355540 -0.0799498101483509 0.0
1.6077805196274726 -0.1152691631616621 0.0
0.2786138498606231 -0.7004916677235116 0.0
0.2583953695402555 -0.6459088693451951 0.0
1.1303250493198880 -1.0040118447416699 0.0
0.7151895819877381 -0.1851552779647422 0.0
0.6874542683620661 -0.1753080004746232 0.0
1.1353502430772096 -0.9091853039771549 0.0
1.5999995596792969 -0.0176364333053175 0.0
1.5974449465190776 -0.0073000000358786 0.0
1.4934798084614205 -0.3741574875223946 0.0
1.4997276536197413 -0.0757707833318197 0.0
1.4489143493132175 -0.3362229174880177 0.0
0.2458174154391610 -0.9005391400965276 0.0
1.5099045096713259 -0.0743457537537256 0.0
1.5838070337037522 0.0096262188114055 0.0
1.5335380942301866 0.0357602072965851 0.0
1.2402073662618933 -0.4804380106454577 0.0
0.6610333159807964 -1.0808023410128824 0.0
1.1409604374653997 -0.4306440300065366 0.0
0.6549909107842300 -1.0883113809277150 0.0
0.0909625142199133 -0.0688652646416624 0.0
0.0764093203172352 -0.0661877723368008 0.0
1.1865696862236641 -0.0821589909748465 0.0
1.1235306649393999 -0.0872835452779090 0.0
0.1331675159480002 -0.3613037407051311 0.0
0.0993527962282466 -0.3081522798341006 0.0
0.1626523968215656 -0.8090172000439448 0.0
0.4768403180737907 -0.9288037634781440 0.0
0.4722078861415547 -0.5357342400378992 0.0
0.5299210503460351 -0.5221423470252619 0.0
1.3893285290010886 -0.0109213556641782 0.0
1.3053525240217629 -0.0809223938315576 0.0
0.8223172636940888 -0.1242983438976343 0.0
0.8767288911180807 -0.1242641365100482 0.0
0.5683587493081264 -1.0610616609885841 0.0
0.6221633833646347 -1.1647754091070364 0.0
0.3330914327237203 -0.0286446146141665 0.0
0.3167754887945466 -0.0335105305196066 0.0
1.2794004712339300 0.0130208584139814 0.0
1.2802420650940383 0.0104537800877078 0.0
0.4513269948902359 -0.9959192563383138 0.0
1.2570812793114017 -0.0034750390122449 0.0
0.8493857135330248 -1.0474453016131384 0.0
0.7701081095843320 -0.4327779836473628 0.0
0.7883871523455849 -0.4703953386244040 0.0
0.0073439368355277 -0.4245295106506206 0.0
1.4726682290429822 -0.5635597338520832 0.0
0.0600029363715677 -0.4449711400022640 0.0
1.3444085188159269 0.0066322779111335 0.0
1.3444764712908619 0.0151475543448876 0.0
1.1365692410933652 -0.7974103368723627 0.0
1.3763774066590708 -0.0383327126903685 0.0
1.3741265995731218 -0.0562777638316192 0.0
0.0779059191705255 -0.1278636023670477 0.0
0.0670517012449398 -0.1177348187667060 0.0
0.7934029285582780 -0.0093127978270447 0.0
0.7806523369805035 -0.0246827087132267 0.0
1.2669190961780776 -0.6065416116915060 0.0
1.2459251439125121 -0.1081239010748178 0.0
1.4171822606328712 -0.5680169156167459 0.0
1.5273911054786879 -0.0904913144997046 0.0
1.2041071784659307 -0.0638286149272451 0.0
0.6324773995411194 -1.1399477418420167 0.0
0.8935341207671387 -0.8991983816218133 0.0
0.7804273737118429 -1.1944601536008999 0.0
1.1027243319636399 -0.0689239194093510 0.0
0.5701044625172733 -0.8230239741236852 0.0
1.0654751656989365 -0.0507684033033550 0.0
1.0670561732326833 -0.0514283517775926 0.0
1.5691920049972687 -0.0760345518072295 0.0
0.1163878291171084 -0.0401860141833657 0.0
0.1066742748732650 -0.0389329958631451 0.0
1.0011278391008169 -0.8718129159489451 0.0
0.0447712060237929 -0.2368564444242056 0.0
0.4832324326195269 -0.7059842803619061 0.0
0.2344998941583706 -0.8565945889207426 0.0
1.5533380721023078 -0.1764481286259053 0.0
1.2285225141881018 -0.2191361620573894 0.0
1.2101168929816619 -0.2004682871252504 0.0
1.1698998742698410 -0.2661301363737714 0.0
0.4536808760984478 -0.2139101511862282 0.0
0.4823124187144529 -0.2047102160471964 0.0
1.2444519511372072 -0.2888661954693978 0.0
1.0455979214947275 -0.0252542114480339 0.0
1.0437978095171918 -0.0261222344126276 0.0
0.9511581803854694 -0.1084716420957612 0.0
1.0100526257277418 -0.1129650048501207 0.0
0.2877482600324052 -0.0492959388092383 0.0
0.2808392194665859 -0.0470295909988682 0.0
0.8450833756755919 -0.0246944406458660 0.0
1.5666580665997423 -0.1641074899873210 0.0
0.0373877338017373 -0.0139970046977741 0.0
0.0289031683322023 -0.0144320802349072 0.0
1.5366993197967920 -0.0972566664962242 0.0
1.5685528174350833 -0.1244530650578809 0.0
0.1317839355884356 -0.5516881606219709 0.0
1.0961079441996775 0.2304787222704876 0.0
1.0941751378226305 0.2307992557811817 0.0
0.2945887453984625 -0.5144030634772722 0.0
0.2566888197729990 -0.4675161642962309 0.0
0.6429449411366319 -0.9542192304780308 0.0
0.9288646773345398 -0.0571661193921443 0.0
0.8948464707020152 -0.1899008047832203 0.0
0.0410034938130212 -0.2173775295496280 0.0
0.4686610533508480 -1.1351333920344910 0.0
0.2543553256491184 -0.8625877648282607 0.0
0.8134985249180721 -0.1322474009170137 0.0
1.0993645699397883 -0.7720151410917104 0.0
1.5578110476470834 -0.0578945327298373 0.0
0.5550891311264341 -1.0722390068294492 0.0
0.0185226815986394 -0.3625601172900295 0.0
1.0678533632221554 -0.6366104050073041 0.0
0.0572571918195382 -0.3410503665739760 0.0
0.7771190507532197 -0.9726814211679188 0.0
0.4185861491833251 -0.0203633224534126 0.0
0.4351634736821221 -0.0176956681998787 0.0
0.0565164168590377 -0.1183143941882456 0.0
0.0436256432669013 -0.0325259553613322 0.0
0.0344786799565945 -0.0303121980806371 0.0
1.2479354556100386 -0.7598769846472501 0.0
0.9406552640844429 -0.6003156393108960 0.0
0.5754804019745957 -1.1111794957769077 0.0
0.0415767243730063 -0.1388942133333865 0.0
0.8662168105045217 0.1645210826140124 0.0
0.8393133859256859 0.1313156604339630 0.0
0.1859614823001001 -0.1769963733647338 0.0
0.1629742641666766 -0.1683961911916798 0.0
1.6349198616181502 -0.1196023008918450 0.0
1.5762597514510075 -0.3322217265798446 0.0
0.6486672720124815 -1.1445838146179708 0.0
0.7051360011667058 -1.1454144908800945 0.0
0.1496828031005004 -0.4674242032600145 0.0
0.4142828451910288 -1.1099367663358073 0.0
0.0468790344197202 -0.0285952315774436 0.0
0.0537733566599797 -0.0298958678444648 0.0
0.4459497258854920 -1.0615397890158227 0.0
0.6623633571087947 -0.1305248667692629 0.0
0.6326236450572990 -0.1190843409403533 0.0
0.9710194967729731 -0.4062924545527725 0.0
1.3567438342043958 -0.0335715536922257 0.0
0.1557491941842070 -0.6471292895502677 0.0
1.3060458312488741 -0.0606298046367319 0.0
0.9322766820680931 -0.3828478980264158 0.0
0.5107115760372311 -0.0319749758605191 0.0
0.5291269547852708 -0.0352541158540841 0.0
0.8931875729354120 -0.0210083716794613 0.0
1.5198541203421891 -0.3578077940487945 0.0
1.4374290727658956 -0.4070179423664017 0.0
0.5709905425458149 -0.9776581297244439 0.0
1.5999874279048738 -0.0528958488990007 0.0
1.5898559321012711 -0.0445725603037885 0.0
0.2481900666966535 -0.3136752789541958 0.0
0.2165914198356580 -0.3004873134339641 0.0
0.7794221961893546 -0.1432433610795481 0.0
0.8006401531854586 -0.1598710196455927 0.0
1.5558603349083346 -0.0750016274298023 0.0
0.5677231058342682 -0.0621764605712467 0.0
0.6385122683428491 -0.0776896470552835 0.0
0.6597573301428730 -0.0810798384560429 0.0
1.2611278939120028 0.0569776757215400 0.0
1.2108839498711794 0.0464966312564684 0.0
0.6403571119422139 0.0336467066093541 0.0
0.6415754337268375 0.0317810476387410 0.0
1.4555346655764927 -0.0551480829108627 0.0
0.3234827006947520 -0.0545635481875172 0.0
0.3375182731092066 -0.0576288520899454 0.0
0.2671044346400501 -0.1166008598966106 0.0
0.2866808333390987 -0.1167546571112752 0.0
0.7314054520535979 0.0592330040486146 0.0
0.7331860376044128 0.1060536349279931 0.0
0.0243208742081998 -0.3970865831228675 0.0
1.3133261100504661 -0.7276962175578885 0.0
1.3377248225529113 -0.7634766160346500 0.0
0.6657225192579239 -0.6215272611078394 0.0
0.7485666185728516 -0.5521763372321316 0.0
1.3905704590743395 -0.4214490500448940 0.0
0.6062805633701218 0.0251699707309647 0.0
0.6324913445884447 -0.0196813837586920 0.0
0.5377425840246506 -0.1085823419360402 0.0
0.5402717969718044 -0.1063977306980969 0.0
0.6605152252005445 -1.1845338192520096 0.0
0.1065431333197742 -0.0245159068839753 0.0
0.1018959059819976 -0.0255088996863606 0.0
0.5901221460322117 -0.7817573325529733 0.0
0.6719845471065738 -0.0975120584655720 0.0
0.6707655812830025 -0.1053841706877332 0.0
1.3106757699437717 -0.1358897313880071 0.0
1.3154282104249579 -0.1136283862630993 0.0
0.4887101328118202 -0.3143340539473948 0.0
0.4331244882223060 -0.3179936491965344 0.0
-0.0113759032266220 -0.1907267904991597 0.0
1.3744538126344577 -0.1605000455707594 0.0
0.6200340857677697 -0.8560601409534360 0.0
0.1248095293971841 -0.4672101140637231 0.0
0.4344844229671525 -0.7006759895818332 0.0
0.9923872131387085 -1.0044244667950550 0.0
0.8876370166601323 -1.1629300966575489 0.0
1.4956435571822153 -0.0634031840674877 0.0
1.4914364221927057 -0.0947866649875227 0.0
0.6393328684744284 -1.2194227338422448 0.0
1.0324921206726796 -0.2593880182402792 0.0
0.9881182177968665 -0.2124677797638363 0.0
0.5343669620749371 -0.1557638444267772 0.0
0.5208253712935027 -0.1628194753754116 0.0
1.5542114259218895 -0.1076464155702155 0.0
0.9582479659890125 -1.0667066295946559 0.0
0.4061434287095544 -1.0636675458642777 0.0
1.2100261557559424 -0.1676294586962345 0.0
1.5665162259893497 -0.0900386304792471 0.0
1.5759489838991476 -0.0946808620069600 0.0
1.2734160024467114 -0.1665718223032197 0.0
0.1134675174017729 -0.0092090110610863 0.0
0.1208683186001637 -0.0073750265914632 0.0
0.4237751592551038 0.0664124357549172 0.0
1.3574438588392399 -0.1356092822055851 0.0
1.3247048514956039 0.0262618705446233 0.0
0.4293632164831500 -0.8679178234027057 0.0
0.1406585258550520 -0.2484436473839414 0.0
0.1163716954537683 -0.2215160220582481 0.0
0.1872822560111013 -0.0844100448868236 0.0
0.1684447531232907 -0.0829394724882235 0.0
0.3781015738884212 -0.6500180637117399 0.0
-0.0075099942456910 -0.1381197740754902 0.0
0.8726426133688313 -0.8168124492111959 0.0
0.5213607724916661 0.0366256168610340 0.0
0.5045537757781843 0.0191368862661672 0.0
1.4809656795790289 -0.0474636841070082 0.0
1.4811521635745322 -0.0590710708664034 0.0
0.9296282525851379 -1.0812480262242397 0.0
1.5803084735418522 -0.1748057521471852 0.0
0.4290875231221019 -0.0487192768305136 0.0
0.0387839787604592 -0.0475617930357852 0.0
0.0288048648433011 -0.0426685521342496 0.0
0.3663474996024149 -0.8101173180402068 0.0
0.0273581354691840 -0.1327449015678100 0.0
0.6986975504899227 -0.8659448734652304 0.0
1.4373560116142652 -0.1391110286710325 0.0
0.6489408295134954 -0.3932995027763913 0.0
0.6117070961510852 -0.4166503172368700 0.0
0.6133418067178089 -1.1271496825580225 0.0
0.6699741784463209 0.0784208179761909 0.0
0.6670341761140474 0.0810171941127495 0.0
0.7624158816094270 -1.0910914711531150 0.0
0.1198429956410066 -0.6613115652062778 0.0
0.1057673501559771 -0.5213829952828364 0.0
0.0016918687388181 -0.1320295533456475 0.0
0.8421887310308317 0.0648959661532869 0.0
0.8049898602338315 0.0966824654054376 0.0
0.8329578277959835 -0.0508016702478042 0.0
0.8043579493741358 -0.0672885703787954 0.0
0.3098870147551738 -0.8930776604150475 0.0
0.6669446860900076 -0.1601670322421089 0.0
0.7473259865278592 -0.9480104771500616 0.0
1.3344603910022048 -0.7781900148260346 0.0
0.5434842077432114 0.0830095932851070 0.0
1.4804833448861532 -0.0112869992609679 0.0
1.4841050088692302 -0.0073573162711713 0.0
1.0459906686162432 -1.0498899830941453 0.0
0.7127625255668452 -1.1101922988410600 0.0
1.3342809623410259 -0.1692502315196851 0.0
0.6936921341405088 -1.1629058796191649 0.0
0.0603482272358803 -0.4435396234087657 0.0
1.1940551835178250 -0.0672764108978448 0.0
0.3745018147978487 -0.9889636268507287 0.0
1.6385083047735380 -0.0963102203928314 0.0
0.4104873040633311 -0.0051198213157314 0.0
1.5807132194448470 -0.0860091067299337 0.0
1.5501757366015363 -0.0993733444656632 0.0
0.0041414656936235 0.0010765965932510 0.0
0.0087336685593970 0.0020014476123157 0.0
0.5351341665116408 0.0418583252491714 0.0
0.3534196971575591 -0.0505448151773849 0.0
0.0032687290946930 -0.0056301102262393 0.0
0.0063152554230741 -0.0053732396955934 0.0
0.5552272521776735 -0.0344975330195264 0.0
0.6187267931104752 -0.8367449483912154 0.0
0.5590072682968307 -0.0341110039553122 0.0
0.5529881497309057 -0.0270185552516445 0.0
0.7041529437312076 -0.2953972422785998 0.0
0.7445218257539756 -0.2875015717889919 0.0
0.6165957363324684 -0.7179870266561726 0.0
0.3315095358225535 -0.3945115138365920 0.0
0.3741557175324858 -0.4206609698702800 0.0
0.0185320669091012 0.0014560914505428 0.0
0.0112280299743368 0.0002703383677123 0.0
1.3251885969670369 -0.4937615087555220 0.0
1.3070143770857658 -0.6441143739112642 0.0
0.9058383621540826 -0.5797535244813844 0.0
0.7809314505118611 -0.4602872357744620 0.0
