# vtk DataFile Version 3.0
LucasCarvalhoTCC Results
ASCII

DATASET POLYDATA
FIELD FieldData 1
TIME 1 1 double
4.9

POINTS 380 float
0.0 2.0 0.0
2.0 2.0 0.0
3.0 2.0 0.0
3.0 1.0 0.0
5.0 1.0 0.0
5.0 0.0 0.0
3.0 0.0 0.0
2.0 0.0 0.0
2.0 1.0 0.0
0.0 1.0 0.0
0.2643114543905713 2.0 0.0
0.5169795502969444 2.0 0.0
0.7585171880292413 2.0 0.0
0.9894145836600268 2.0 0.0
1.210140497826619 2.0 0.0
1.421143008568911 2.0 0.0
1.622850459538253 2.0 0.0
1.815672303789548 2.0 0.0
2.188552664328277 2.0 0.0
2.359329284173903 2.0 0.0
2.514005696104645 2.0 0.0
2.654099788331341 2.0 0.0
2.780986322989182 2.0 0.0
2.895910470953052 2.0 0.0
3.0 1.9 0.0
3.0 1.8 0.0
3.0 1.7 0.0
3.0 1.6 0.0
3.0 1.5 0.0
3.0 1.4 0.0
3.0 1.3 0.0
3.0 1.2 0.0
3.0 1.1 0.0
3.105031513416626 1.0 0.0
3.221094637894669 1.0 0.0
3.349348047908936 1.0 0.0
3.491072094154001 1.0 0.0
3.647681638607018 1.0 0.0
3.820740106959136 1.0 0.0
4.011975186625977 1.0 0.0
4.223295996958671 1.0 0.0
4.456812096249916 1.0 0.0
4.714854728122151 1.0 0.0
5.0 0.7500000000000003 0.0
5.0 0.5000000000000012 0.0
5.0 0.2500000000000011 0.0
4.735688545609428 0.0 0.0
4.483020449703056 0.0 0.0
4.241482811970759 0.0 0.0
4.010585416339973 0.0 0.0
3.789859502173381 0.0 0.0
3.578856991431089 0.0 0.0
3.377149540461747 0.0 0.0
3.184327696210452 0.0 0.0
2.811447335671723 0.0 0.0
2.640670715826097 0.0 0.0
2.485994303895355 0.0 0.0
2.345900211668659 0.0 0.0
2.219013677010818 0.0 0.0
2.104089529046948 0.0 0.0
2.0 0.1 0.0
2.0 0.2 0.0
2.0 0.3 0.0
2.0 0.4 0.0
2.0 0.5 0.0
2.0 0.6 0.0
2.0 0.7 0.0
2.0 0.8 0.0
2.0 0.9 0.0
1.894968486583374 1.0 0.0
1.77890536210533 1.0 0.0
1.650651952091063 1.0 0.0
1.508927905845999 1.0 0.0
1.352318361392982 1.0 0.0
1.179259893040864 1.0 0.0
0.9880248133740233 1.0 0.0
0.7767040030413299 1.0 0.0
0.5431879037500846 1.0 0.0
0.2851452718778493 1.0 0.0
0.0 1.25 0.0
0.0 1.499999999999999 0.0
0.0 1.749999999999999 0.0
2.426045913985508 1.348290599604586 0.0
2.562221387987337 0.6558377602558874 0.0
1.966703786708101 1.492474555319359 0.0
3.033486484223225 0.4973568340887861 0.0
2.371610747520728 0.97814425147097 0.0
2.648098402859118 1.648016516253387 0.0
2.351901597140882 0.3519834837466129 0.0
2.694321138879857 1.061432730999581 0.0
1.441644339445862 1.496646809257773 0.0
3.554831642064292 0.501744031268764 0.0
2.720742750697982 1.350625068836981 0.0
2.282037541072919 0.639419348257894 0.0
2.813390610951134 0.7911761792959446 0.0
2.310700631729327 1.679155452525512 0.0
2.688751528716965 0.3206838402855661 0.0
2.211165393176843 1.213708510063781 0.0
0.9449004170027906 1.496357611130017 0.0
4.05509958299721 0.5036423888699835 0.0
3.025501657200047 0.7528388163714679 0.0
1.714778657098197 1.300039655550584 0.0
1.958264922640818 1.245975101752485 0.0
2.206386339371814 0.8500000000000001 0.0
3.336706349465057 0.704398544338507 0.0
4.529565928894533 0.555233644424822 0.0
0.4704340711054673 1.444766355575178 0.0
2.186983355180128 1.461437746541105 0.0
2.553715879020142 0.8859594914241276 0.0
2.782212276375736 0.5474565156445963 0.0
2.500206140967324 1.148517546040804 0.0
2.803373162317882 1.783880361314082 0.0
2.196626837682118 0.2161196386859174 0.0
1.735623536927746 1.664129737658362 0.0
3.268802735993943 0.3358439745752063 0.0
2.799454045372581 1.51553500056848 0.0
2.18762015375897 0.4992029885790829 0.0
2.813478812948685 1.18678600527921 0.0
2.400994471757771 0.7612313552289275 0.0
2.405444563947088 0.5311203927463914 0.0
2.583195945356847 1.473216966241769 0.0
3.734210872783077 0.7260959952797862 0.0
1.256500988572085 1.265010492624376 0.0
2.938353069321001 0.2909212553641365 0.0
2.061245308362322 1.709221243241415 0.0
2.182240881432738 1.001025052084926 0.0
2.830214026212788 0.9796244234047695 0.0
2.49023894829247 1.787687811117195 0.0
2.50976105170753 0.2123121888828049 0.0
1.194806886820808 1.686899295332255 0.0
3.805193113179192 0.3131007046677451 0.0
2.655039231860651 1.208917360245127 0.0
1.493530449555064 1.231198576616718 0.0
2.345622594939228 1.152685186835846 0.0
2.41380980106708 1.521513100394759 0.0
2.58979513084283 0.4863225267637531 0.0
2.135472648094309 0.7246460081196311 0.0
2.912574128751924 0.660128736186259 0.0
2.866043013605144 1.353074765380587 0.0
0.6928324624395237 1.69170809873467 0.0
4.307167537560476 0.3082919012653306 0.0
2.071506740582853 1.128535871978767 0.0
0.6831902494895832 1.302725441792086 0.0
4.316809750510417 0.6972745582079137 0.0
2.85534466702333 1.667491236848871 0.0
2.141886244104996 0.336139391754002 0.0
1.447743165823209 1.773242752731258 0.0
3.554386585610856 0.224002072703283 0.0
2.96485662756902 0.8593908564801968 0.0
3.240425509636175 0.8099760775594669 0.0
2.088410584923666 1.339747073830609 0.0
3.277530767974837 0.4939020807639749 0.0
3.534313505233912 0.7935179117986669 0.0
2.546683861402325 1.011736398479819 0.0
2.664793655038503 0.758149595673951 0.0
2.7009922066801 0.9086021996324817 0.0
1.844652141496971 1.153158997353228 0.0
2.575910747861113 1.316876286520138 0.0
3.994328863599566 0.7454319923658932 0.0
1.005671136400434 1.254568007634107 0.0
1.722192091537185 1.482888323667831 0.0
2.644751416415203 1.850904811198953 0.0
2.355248583584797 0.1490951888010467 0.0
2.31560379269905 1.25706851182614 0.0
2.129697972466254 0.5864366202645266 0.0
2.417220568140766 0.6397160301847872 0.0
2.867945749403976 1.069821281672812 0.0
3.182303046124178 0.6739667261124369 0.0
4.702774994215813 0.2953677284017739 0.0
0.2972250057841874 1.704632271598226 0.0
2.90043748182062 0.4316738443013928 0.0
2.486081387366873 0.3514585853722887 0.0
2.513918612633127 1.648541414627711 0.0
2.086778258621772 1.563111332603502 0.0
4.025359850459486 0.2638518716814435 0.0
0.9746401495405139 1.736148128318556 0.0
3.116389458098145 0.2933651166122753 0.0
1.885410353788165 1.707062521230272 0.0
2.327134732627959 1.833634230002939 0.0
2.672865267372041 0.1663657699970617 0.0
1.675899428547673 1.15999616666306 0.0
1.858973331615206 1.373382723203102 0.0
2.860266039499884 1.862282581689995 0.0
2.139733960500116 0.1377174183100045 0.0
1.257473476073173 1.479081588926576 0.0
3.731624273377778 0.5208146070195914 0.0
2.115038607594509 0.9238947313642476 0.0
0.2734661728051435 1.270630989444945 0.0
4.726533827194856 0.7293690105550548 0.0
2.699965708650878 1.465007479364728 0.0
2.298365077320068 0.5341069340550768 0.0
2.510583000486659 0.7602856732279889 0.0
3.370667741214912 0.8392397884376295 0.0
3.067541604254986 0.8806352314757129 0.0
2.90073732483139 1.443475210354718 0.0
2.264071206758208 0.9501943312745662 0.0
2.278663096491763 0.7489636980394857 0.0
1.952511813454414 1.110576661474517 0.0
2.744352083917141 0.687787375233183 0.0
1.566252941493004 1.383661493752942 0.0
2.437660520624072 0.8703573012735125 0.0
2.904826075218911 1.261819176983655 0.0
2.305967018083784 1.391390767447104 0.0
2.105729326736999 0.8145314366030645 0.0
2.428967188976762 1.236966721617647 0.0
3.060475488407204 0.1442825789852263 0.0
1.934979199332455 1.852811714602595 0.0
2.095475260770118 0.4348597444661615 0.0
2.914777085426361 1.759093454264707 0.0
2.084827330449114 0.2414252069642749 0.0
2.207128288422204 1.315477221019454 0.0
2.658751426439581 0.5773232450959589 0.0
2.612380011409894 1.114144853433198 0.0
2.897371573983894 1.569769587751228 0.0
0.5001010519014215 1.226918930408543 0.0
4.499898948098578 0.7730810695914568 0.0
2.753086810589338 1.690362801865437 0.0
2.246793053318422 0.3097947118702842 0.0
3.391580469276819 0.5673489147038103 0.0
3.035026488699165 0.6179797538177514 0.0
2.449819864663089 1.055109427275025 0.0
2.27653308928065 1.054384468582349 0.0
2.794675693196835 1.418106589018447 0.0
2.778866980525137 1.083577784614141 0.0
2.244522876020972 0.1116738824400324 0.0
2.755477123979027 1.888326117559968 0.0
2.323887028942199 0.8604475039748537 0.0
2.204900210979926 1.747483509451062 0.0
2.794853185869193 0.2526222191943996 0.0
2.320767315286541 1.530441598510029 0.0
1.550828143561484 1.606851581022188 0.0
2.796593663741882 1.288013595743853 0.0
3.436143660897262 0.3940652474171653 0.0
2.682379445750112 0.4493639922429763 0.0
3.242313228541417 0.154845696987206 0.0
1.75965289115187 1.844031320058407 0.0
1.3642341383496 1.159631408929946 0.0
1.980047380836635 1.36362624976796 0.0
2.070303834520089 1.451946835577872 0.0
2.55866460451515 1.229901920133861 0.0
4.26844523535139 0.499131154814159 0.0
0.7315547646486098 1.500868845185841 0.0
2.716116351489881 1.570657861970705 0.0
2.283245236086922 0.4299499540566049 0.0
4.50573905238033 0.204273435313806 0.0
0.4942609476196695 1.795726564686194 0.0
3.605070352001925 0.644396355247622 0.0
3.171946621948212 0.9019117497969773 0.0
3.40309695214227 0.1789624633199048 0.0
1.59690304785773 1.821037536680094 0.0
4.776800700354217 0.5074282293075529 0.0
0.2231992996457826 1.492571770692447 0.0
1.293020597407515 1.839015256431498 0.0
3.706979402592485 0.1609847435685022 0.0
1.398281395597716 1.351857389185529 0.0
2.880181082677912 0.1378504756446906 0.0
2.119200639021148 1.861833157788504 0.0
2.408646939494887 0.2452196658480275 0.0
2.591353060505113 1.754780334151973 0.0
1.146570081566377 1.160946826906423 0.0
3.853429918433624 0.8390531730935771 0.0
2.920846657438631 1.149071660619678 0.0
2.101132283911678 1.226382957654413 0.0
2.903672483971366 0.7774662795474147 0.0
2.516386521935266 0.571665255016536 0.0
2.475412447847437 1.444413760085193 0.0
2.903041575637174 0.5510905120278109 0.0
3.666476299189054 0.8553176740217776 0.0
1.558137053653031 1.119389262041809 0.0
3.867595456948903 0.1475874639835382 0.0
1.132404543051097 1.852412536016462 0.0
2.635017655944937 0.9730281566682446 0.0
2.436667490139274 1.901171080200935 0.0
2.563332509860726 0.09882891979906516 0.0
2.091598337090247 1.040423151014485 0.0
0.8316881289508771 1.172977685150089 0.0
4.168311871049123 0.827022314849911 0.0
3.648565743761548 0.3681286963687066 0.0
1.355037313653319 1.636865536133179 0.0
2.58412781071005 1.576586299624529 0.0
2.41587218928995 0.4234137003754711 0.0
2.083716468691946 0.6634832154935376 0.0
1.843942294678346 1.256771801786488 0.0
[...]
POINT_DATA 380

VECTORS Velocity float
0.0000000000000000 0.0000000000000000 0.0
0.0000000000000000 0.0000000000000000 0.0
0.0000000000000000 0.0000000000000000 0.0
0.0000000000000000 0.0000000000000000 0.0
0.0000000000000000 0.0000000000000000 0.0
0.9186852551547028 -0.1330571628005981 0.0
0.0000000000000000 0.0000000000000000 0.0
0.0000000000000000 0.0000000000000000 0.0
0.0000000000000000 0.0000000000000000 0.0
0.0000000000000000 0.0000000000000000 0.0
0.0000000000000000 0.0000000000000000 0.0
0.0000000000000000 0.0000000000000000 0.0
0.0000000000000000 0.0000000000000000 0.0
0.0000000000000000 0.0000000000000000 0.0
0.0000000000000000 0.0000000000000000 0.0
0.0000000000000000 0.0000000000000000 0.0
0.0000000000000000 0.0000000000000000 0.0
0.0000000000000000 0.0000000000000000 0.0
0.0000000000000000 0.0000000000000000 0.0
0.0000000000000000 0.0000000000000000 0.0
0.0000000000000000 0.0000000000000000 0.0
0.0000000000000000 0.0000000000000000 0.0
0.0000000000000000 0.0000000000000000 0.0
0.0000000000000000 0.0000000000000000 0.0
0.0000000000000000 0.0000000000000000 0.0
0.0000000000000000 0.0000000000000000 0.0
0.0000000000000000 0.0000000000000000 0.0
0.0000000000000000 0.0000000000000000 0.0
0.0000000000000000 0.0000000000000000 0.0
0.0000000000000000 0.0000000000000000 0.0
0.0000000000000000 0.0000000000000000 0.0
0.0000000000000000 0.0000000000000000 0.0
0.0000000000000000 0.0000000000000000 0.0
0.0000000000000000 0.0000000000000000 0.0
0.0000000000000000 0.0000000000000000 0.0
0.0000000000000000 0.0000000000000000 0.0
0.0000000000000000 0.0000000000000000 0.0
0.0000000000000000 0.0000000000000000 0.0
0.0000000000000000 0.0000000000000000 0.0
0.0000000000000000 0.0000000000000000 0.0
0.0000000000000000 0.0000000000000000 0.0
0.0000000000000000 0.0000000000000000 0.0
0.0000000000000000 0.0000000000000000 0.0
1.1551801485475304 0.3642198874496363 0.0
0.7957331519670672 0.0634354877977717 0.0
1.1395827939975116 -0.2964980649453628 0.0
0.0000000000000000 0.0000000000000000 0.0
0.0000000000000000 0.0000000000000000 0.0
0.0000000000000000 0.0000000000000000 0.0
0.0000000000000000 0.0000000000000000 0.0
0.0000000000000000 0.0000000000000000 0.0
0.0000000000000000 0.0000000000000000 0.0
0.0000000000000000 0.0000000000000000 0.0
0.0000000000000000 0.0000000000000000 0.0
0.0000000000000000 0.0000000000000000 0.0
0.0000000000000000 0.0000000000000000 0.0
0.0000000000000000 0.0000000000000000 0.0
0.0000000000000000 0.0000000000000000 0.0
0.0000000000000000 0.0000000000000000 0.0
0.0000000000000000 0.0000000000000000 0.0
0.0000000000000000 0.0000000000000000 0.0
0.0000000000000000 0.0000000000000000 0.0
0.0000000000000000 0.0000000000000000 0.0
0.0000000000000000 0.0000000000000000 0.0
0.0000000000000000 0.0000000000000000 0.0
0.0000000000000000 0.0000000000000000 0.0
0.0000000000000000 0.0000000000000000 0.0
0.0000000000000000 0.0000000000000000 0.0
0.0000000000000000 0.0000000000000000 0.0
0.0000000000000000 0.0000000000000000 0.0
0.0000000000000000 0.0000000000000000 0.0
0.0000000000000000 0.0000000000000000 0.0
0.0000000000000000 0.0000000000000000 0.0
0.0000000000000000 0.0000000000000000 0.0
0.0000000000000000 0.0000000000000000 0.0
0.0000000000000000 0.0000000000000000 0.0
0.0000000000000000 0.0000000000000000 0.0
0.0000000000000000 0.0000000000000000 0.0
0.0000000000000000 0.0000000000000000 0.0
1.0000000000000000 0.0000000000000000 0.0
1.0000000000000000 0.0000000000000000 0.0
1.0000000000000000 0.0000000000000000 0.0
0.9258844887180655 -0.8368085714329223 0.0
0.8096668596940382 -0.8616107645762104 0.0
1.5180861678053936 -0.2556769851931234 0.0
1.4605022824131717 -0.2515002270596993 0.0
0.5908198791375567 -1.2009735382907700 0.0
0.2628559398899654 -0.2065757976989701 0.0
0.2227583670198587 -0.1949036567930769 0.0
0.5757823374127463 -1.2213409593563178 0.0
1.5744912683889232 -0.0762525951692647 0.0
1.6112716104704645 -0.1199254312442878 0.0
0.2735571185549007 -0.6892148525985662 0.0
0.2519942263604115 -0.6027868589284651 0.0
1.1649193856941886 -0.9902325820944937 0.0
0.7037069622918902 -0.2058789856542350 0.0
0.6606980527695591 -0.1926189114778572 0.0
1.1601695924850821 -0.9001957936669042 0.0
1.6001514986103953 -0.0196004886596342 0.0
1.5975316386101364 -0.0091596420149990 0.0
1.4942906738691428 -0.3484738608509192 0.0
1.4997486363464203 -0.0578783149815562 0.0
1.4348374861869850 -0.3088164747266818 0.0
0.2578268289162273 -0.8186350241398537 0.0
1.5176596823182635 -0.0671400159232321 0.0
1.5836248047562420 0.0097383371938142 0.0
1.5334862379907750 0.0359707753458497 0.0
1.2907734270364601 -0.5000893421837364 0.0
0.6991465062574509 -1.2061963800756021 0.0
1.1883918680475738 -0.4576164855055923 0.0
0.6886437836795117 -1.2163264590991878 0.0
0.0512188163425401 -0.0653786670509582 0.0
0.0420469154265859 -0.0558349085608887 0.0
1.1912906040247566 -0.0812116083049163 0.0
1.1137539193182990 -0.0924165200799341 0.0
0.1063491503853864 -0.3172052355783971 0.0
0.0760067264407696 -0.2543466386645377 0.0
0.1737624917413267 -0.7378568029142845 0.0
0.4958198901008176 -0.9746923433890461 0.0
0.4532598263912808 -0.5594979327456719 0.0
0.5257992511863003 -0.5681542334533868 0.0
1.3929230026324255 -0.0125028438938667 0.0
1.3076008777004624 -0.0808404974623414 0.0
0.8074842736089409 -0.1291039126218383 0.0
0.8780785320181373 -0.1314581419609039 0.0
0.5546063749546306 -0.9766034264075162 0.0
0.6242097303635945 -1.0872007849568204 0.0
0.2950632925511774 -0.0354430317384014 0.0
0.2716612111993550 -0.0398357888485992 0.0
1.2772369340715006 0.0117393796244258 0.0
1.2778519457254109 0.0076086278041409 0.0
0.4672505013474288 -1.0575487423420338 0.0
1.2568268304193131 0.0018173086076825 0.0
0.8842285490024091 -1.1001337061610854 0.0
0.7859422219692118 -0.4863364631932657 0.0
0.7953022216717052 -0.5276103470062531 0.0
0.0300948548056843 -0.3502390922587809 0.0
1.5100376840054104 -0.5438100626480341 0.0
0.0640633090339832 -0.3802735200011848 0.0
1.3446623958327637 0.0064443262234118 0.0
1.3450979341675036 0.0148995841576027 0.0
1.0930601393532466 -0.7338781812423288 0.0
1.3761503855453119 -0.0384137895798580 0.0
1.3734887956321227 -0.0565327621582401 0.0
0.0430902255481811 -0.1110714108228447 0.0
0.0374306837699326 -0.0931024150346329 0.0
0.7915599267241491 -0.0086523383176429 0.0
0.7743885033986068 -0.0273828403697426 0.0
1.2377218775911500 -0.5605030350553863 0.0
1.2447295520106076 -0.1000569909081540 0.0
1.4515800120766484 -0.5540998585927301 0.0
1.5356602480884016 -0.0927501451040377 0.0
1.2092626315521953 -0.0648098254228532 0.0
0.6661244500528940 -1.2716685734202138 0.0
0.9501799264375784 -0.9775767742075422 0.0
0.8097021845455129 -1.2431200432900498 0.0
1.0684618504751697 -0.0562849755629865 0.0
0.5975664935080187 -0.9103982904877717 0.0
1.0658832274931809 -0.0517495090879288 0.0
1.0677799185060068 -0.0526795953516717 0.0
1.5799149355515414 -0.0657228308906802 0.0
0.0900729040286259 -0.0380882381311822 0.0
0.0790735057512888 -0.0349393411094881 0.0
1.0523477876732790 -0.9175165805727680 0.0
0.0411110046751371 -0.1869960069055220 0.0
0.4856389057241431 -0.7496016068794918 0.0
0.2464247648627340 -0.7661765183269856 0.0
1.5669468307581373 -0.1602627779392317 0.0
1.2290473795819894 -0.2189059761521303 0.0
1.2102380069244032 -0.2003295404520474 0.0
1.1904081191184304 -0.2686686464694392 0.0
0.4024242258642740 -0.2268787012111001 0.0
0.4417491118665357 -0.2235031528460215 0.0
1.2739498194737124 -0.2946593867015153 0.0
1.0451178940131685 -0.0266672549142874 0.0
1.0429815941257898 -0.0274981013890562 0.0
0.9373138691540246 -0.1125592957406674 0.0
1.0137981004921641 -0.1171357344203357 0.0
0.2708627298954770 -0.0534994600841522 0.0
0.2581655798582168 -0.0497954377549705 0.0
0.8346341292031889 -0.0182664562736664 0.0
1.5833384973543345 -0.1485252329797144 0.0
0.0091216964651210 -0.0178897228771896 0.0
0.0074436910840068 -0.0146942376044850 0.0
1.5372942699044023 -0.0975810377914187 0.0
1.5699064837208212 -0.1290940040186276 0.0
0.1402040388827942 -0.4823331208051355 0.0
1.0959950363704807 0.2306226988290258 0.0
1.0936392057249789 0.2310968980671979 0.0
0.2729920104212684 -0.5082460336022031 0.0
0.2281665998713664 -0.4344091206050230 0.0
0.6786931810119966 -1.0619862269931912 0.0
0.9321225843749816 -0.0545775772979117 0.0
0.8768734876918184 -0.1748695002021582 0.0
0.0352907911958944 -0.1778380250487984 0.0
0.4707650407745024 -1.0954472589820310 0.0
0.2665514283580435 -0.8244690455001681 0.0
0.7758245479202965 -0.1223330500754271 0.0
1.1621484180002737 -0.8114478918928856 0.0
1.5613602594563440 -0.0483241266448653 0.0
0.5801173584562215 -1.1607983558741424 0.0
0.0312443259825271 -0.3087307785671675 0.0
1.1284592822650719 -0.6833947502018848 0.0
0.0701158857015702 -0.2858063099996643 0.0
0.8224714279515954 -1.0728577581496794 0.0
0.4052510890558930 -0.0213400809843185 0.0
0.4318328539270848 -0.0191687469091043 0.0
0.0351392538481466 -0.0890093947778102 0.0
0.0139427834866183 -0.0306820069492326 0.0
0.0115641890953233 -0.0250693915755643 0.0
1.2946223854984911 -0.7657259699463409 0.0
0.9853298584708783 -0.6650541535571380 0.0
0.5978336605493144 -1.2089591275327303 0.0
0.0237791249021604 -0.1132322941616666 0.0
0.8659851004215237 0.1645798916872327 0.0
0.8386557113987254 0.1312743839451202 0.0
0.1350467539281792 -0.1659147347229873 0.0
0.1139231340923255 -0.1453250954700832 0.0
1.6437095106631190 -0.1222849939541978 0.0
1.6085221076639267 -0.3158779918265877 0.0
0.6777035477893398 -1.2603538102346379 0.0
0.7099897385198266 -1.1319329341132651 0.0
0.1371042742363958 -0.4169138262086408 0.0
0.4222263464732105 -1.0596615542175678 0.0
0.0278437875401630 -0.0236454303162633 0.0
0.0328446506893517 -0.0270980902792550 0.0
0.4582365084817602 -1.0570316848462749 0.0
0.6496834487582348 -0.1393356441741053 0.0
0.6054483944789308 -0.1239904314121171 0.0
1.0022783232930281 -0.4464654775612160 0.0
1.3586059521207330 -0.0293494234188878 0.0
0.1584141914370796 -0.5881140854383459 0.0
1.3016355430519229 -0.0659680937930193 0.0
0.9458431745170406 -0.4212536855286947 0.0
0.5004065382099279 -0.0333474622812998 0.0
0.5286886383761185 -0.0359940394075930 0.0
0.8946672059083267 -0.0192785576534899 0.0
1.5434441711368578 -0.3403066235749980 0.0
1.4777536199814523 -0.4064414931792311 0.0
0.5965994444176146 -1.0873993036711660 0.0
1.6000742783754855 -0.0535694420706807 0.0
1.5899146799004404 -0.0451098011998262 0.0
0.2025739650769508 -0.2998481902455895 0.0
0.1705832123096258 -0.2670526278605750 0.0
0.7799938133646473 -0.1433693512611519 0.0
0.8008357316412950 -0.1598515208057959 0.0
1.5612305810301719 -0.0779113697486671 0.0
0.5603984970049275 -0.0551749222073344 0.0
0.6302401883732278 -0.0793784564990623 0.0
0.6585128902438879 -0.0802212703637123 0.0
1.2611522247933453 0.0575517490580564 0.0
1.2108940892672395 0.0466731533785277 0.0
0.6381797350556673 0.0333117528854631 0.0
0.6382855176246187 0.0300574609194222 0.0
1.4570883624084914 -0.0512692995499602 0.0
0.3096682993883874 -0.0560260782381376 0.0
0.3315531881775010 -0.0606490033555768 0.0
0.2157407492875463 -0.1147654351850426 0.0
0.2402394122510182 -0.1194065898504409 0.0
0.7328992398138614 0.0586446670963124 0.0
0.7342267470533599 0.1056814144667808 0.0
0.0456182912151622 -0.3418469521813208 0.0
1.3142434740347830 -0.6964752909827093 0.0
1.3490208650079190 -0.7233799330053571 0.0
0.6753930896736821 -0.6862809716760725 0.0
0.7812522676725602 -0.6247117085966866 0.0
1.4388625415622371 -0.4212463057632657 0.0
0.6079997933449298 0.0248168685548714 0.0
0.6290779364092295 -0.0155259688793822 0.0
0.5363436128695371 -0.1093718257458310 0.0
0.5387781942592504 -0.1068759696767942 0.0
0.6930064899349856 -1.2798625235712364 0.0
0.0916644364352127 -0.0257846571452235 0.0
0.0850023839226657 -0.0265208588924071 0.0
0.5640122595263348 -0.7026651590839086 0.0
0.6719892014192177 -0.0979252960219119 0.0
0.6704916670452089 -0.1057454347083678 0.0
1.3068955246413241 -0.1413921326547324 0.0
1.3136007928875908 -0.1129101081734034 0.0
0.4514292282247884 -0.3356742226151823 0.0
0.3844267900769316 -0.3287991090222605 0.0
0.0043015747306436 -0.1481682298843731 0.0
1.3660124756739416 -0.1390252282131732 0.0
0.6039335421503795 -0.7697934643845896 0.0
0.1123075865817700 -0.4056253223176420 0.0
0.4355250616719598 -0.7477241520360609 0.0
0.9742136946508348 -0.9446105469926102 0.0
0.9055130957208255 -1.1408133074582192 0.0
1.4973570567660976 -0.0660269479098451 0.0
1.4929239094230007 -0.0970003682119120 0.0
0.6549468508245757 -1.2239471492156617 0.0
1.0513627750052461 -0.2803818492040052 0.0
0.9956092268539384 -0.2286985093729452 0.0
0.5016372810400529 -0.1731227251859189 0.0
0.4766190814860584 -0.1776372072520267 0.0
1.5616875502523853 -0.1089958538002907 0.0
1.0041110905099300 -1.1061976454747486 0.0
0.4200274120735596 -1.0698994637005030 0.0
1.2136193912583302 -0.1677147607229132 0.0
1.5661133842304493 -0.0924410050224325 0.0
1.5756399453707259 -0.0978546248542244 0.0
1.2915189586775360 -0.1697965685735004 0.0
0.0904975880568730 -0.0119674253924415 0.0
0.1000947998438749 -0.0103965632031484 0.0
0.4212091464603575 0.0687102099639285 0.0
1.3633431423982951 -0.1369743532341173 0.0
1.3202474332225609 0.0378288340971959 0.0
0.4438242952706993 -0.9217003990739012 0.0
0.0994810681423602 -0.2206943280081405 0.0
0.0787277088967463 -0.1821043098426543 0.0
0.1392836740584972 -0.0838602995367254 0.0
0.1204532613778762 -0.0758049488692680 0.0
0.3683597608842427 -0.6505164767034118 0.0
0.0106110508732437 -0.1103468304805409 0.0
0.9292697716129336 -0.8982448856082457 0.0
0.5211274623848421 0.0366067222577296 0.0
0.5040538842135479 0.0190492868877199 0.0
1.4811848346675043 -0.0483665851347122 0.0
1.4810827337752508 -0.0599196153847832 0.0
0.9542421285485517 -1.0751187820041763 0.0
1.6062909522712776 -0.1643769167065620 0.0
0.4304066062581173 -0.0486997686596645 0.0
0.0128411781439231 -0.0378931258511827 0.0
0.0087054890884563 -0.0313006759313697 0.0
0.3776854244798015 -0.8123631840745197 0.0
0.0168149938394898 -0.0983342894558777 0.0
0.7379982857671306 -0.9752996335799591 0.0
1.4544832223091932 -0.1373880404145529 0.0
0.6410778857448404 -0.4393269140027472 0.0
0.5902489957067739 -0.4516820228902672 0.0
0.6445820013177226 -1.2446142206691004 0.0
0.6699033604160002 0.0780614037036773 0.0
0.6672459310147314 0.0808071202459409 0.0
0.8056306385034770 -1.1915456625388976 0.0
0.1300819520483516 -0.5792834304114755 0.0
0.1090200247328904 -0.4494114419682525 0.0
0.0097905938281819 -0.1071385309277257 0.0
0.8421330552348060 0.0649319965059723 0.0
0.8047603298268086 0.0969180383937715 0.0
0.8330169009870912 -0.0507533407432019 0.0
0.8045878205345176 -0.0670071436044792 0.0
0.3180075176858917 -0.8779800145158735 0.0
0.6358365133569447 -0.1448183640062441 0.0
0.7923542275161092 -1.0579416224967739 0.0
1.3768979072651317 -0.7750390834396339 0.0
0.5300225555439705 0.0851156406881559 0.0
1.4803819401352083 -0.0122128472502316 0.0
1.4842746035885319 -0.0081466409660527 0.0
1.0384845763370423 -0.9828858764817044 0.0
0.7497618160968111 -1.2112806109270624 0.0
1.3243428120695564 -0.1510319947682456 0.0
0.7210773502270247 -1.2233522543708764 0.0
0.0881895613463878 -0.3820160016660940 0.0
1.1759191440887142 -0.0512471300201083 0.0
0.3743547246403409 -0.9033285228357073 0.0
1.6565758014618774 -0.0895782881925764 0.0
0.4122171520339186 -0.0053727982028611 0.0
1.5813424289937823 -0.0860640828009968 0.0
1.5503895133090191 -0.0992783544712244 0.0
-0.0063727508440100 -0.0013340757637228 0.0
-0.0073384039551168 -0.0017665285409749 0.0
0.5347070543513044 0.0429887363809082 0.0
0.3402602288536430 -0.0420904220474173 0.0
-0.0033734443481952 -0.0055853071245495 0.0
-0.0035166248881075 -0.0066820453819859 0.0
0.5569060257445253 -0.0346393699603797 0.0
0.6441685001164182 -0.9197719287133141 0.0
0.5591492061352109 -0.0341149687863320 0.0
0.5533562116394596 -0.0270422088674560 0.0
0.6801754223429769 -0.3282435079959998 0.0
0.7365968244393836 -0.3260233905236646 0.0
0.6448036407484167 -0.8056993260582711 0.0
0.2895402408277316 -0.3867845122814016 0.0
0.3389427630269707 -0.4354335781155635 0.0
-0.0074047506600409 -0.0035851340449996 0.0
-0.0064460719129339 -0.0028287681898840 0.0
1.2735228988345384 -0.4546958825567777 0.0
1.3644231976459156 -0.6536351797312264 0.0
0.9532310682275769 -0.6451830249824859 0.0
0.7367724122939110 -0.4202667218778999 0.0
