# vtk DataFile Version 3.0
LucasCarvalhoTCC Results
ASCII

DATASET POLYDATA
FIELD FieldData 1
TIME 1 1 double
4.5

POINTS 380 float
0.0 2.0 0.0
2.0 2.0 0.0
3.0 2.0 0.0
3.0 1.0 0.0
5.0 1.0 0.0
5.0 0.0 0.0
3.0 0.0 0.0
2.0 0.0 0.0
2.0 1.0 0.0
0.0 1.0 0.0
0.2643114543905713 2.0 0.0
0.5169795502969444 2.0 0.0
0.7585171880292413 2.0 0.0
0.9894145836600268 2.0 0.0
1.210140497826619 2.0 0.0
1.421143008568911 2.0 0.0
1.622850459538253 2.0 0.0
1.815672303789548 2.0 0.0
2.188552664328277 2.0 0.0
2.359329284173903 2.0 0.0
2.514005696104645 2.0 0.0
2.654099788331341 2.0 0.0
2.780986322989182 2.0 0.0
2.895910470953052 2.0 0.0
3.0 1.9 0.0
3.0 1.8 0.0
3.0 1.7 0.0
3.0 1.6 0.0
3.0 1.5 0.0
3.0 1.4 0.0
3.0 1.3 0.0
3.0 1.2 0.0
3.0 1.1 0.0
3.105031513416626 1.0 0.0
3.221094637894669 1.0 0.0
3.349348047908936 1.0 0.0
3.491072094154001 1.0 0.0
3.647681638607018 1.0 0.0
3.820740106959136 1.0 0.0
4.011975186625977 1.0 0.0
4.223295996958671 1.0 0.0
4.456812096249916 1.0 0.0
4.714854728122151 1.0 0.0
5.0 0.7500000000000003 0.0
5.0 0.5000000000000012 0.0
5.0 0.2500000000000011 0.0
4.735688545609428 0.0 0.0
4.483020449703056 0.0 0.0
4.241482811970759 0.0 0.0
4.010585416339973 0.0 0.0
3.789859502173381 0.0 0.0
3.578856991431089 0.0 0.0
3.377149540461747 0.0 0.0
3.184327696210452 0.0 0.0
2.811447335671723 0.0 0.0
2.640670715826097 0.0 0.0
2.485994303895355 0.0 0.0
2.345900211668659 0.0 0.0
2.219013677010818 0.0 0.0
2.104089529046948 0.0 0.0
2.0 0.1 0.0
2.0 0.2 0.0
2.0 0.3 0.0
2.0 0.4 0.0
2.0 0.5 0.0
2.0 0.6 0.0
2.0 0.7 0.0
2.0 0.8 0.0
2.0 0.9 0.0
1.894968486583374 1.0 0.0
1.77890536210533 1.0 0.0
1.650651952091063 1.0 0.0
1.508927905845999 1.0 0.0
1.352318361392982 1.0 0.0
1.179259893040864 1.0 0.0
0.9880248133740233 1.0 0.0
0.7767040030413299 1.0 0.0
0.5431879037500846 1.0 0.0
0.2851452718778493 1.0 0.0
0.0 1.25 0.0
0.0 1.499999999999999 0.0
0.0 1.749999999999999 0.0
2.426045913985508 1.348290599604586 0.0
2.562221387987337 0.6558377602558874 0.0
1.966703786708101 1.492474555319359 0.0
3.033486484223225 0.4973568340887861 0.0
2.371610747520728 0.97814425147097 0.0
2.648098402859118 1.648016516253387 0.0
2.351901597140882 0.3519834837466129 0.0
2.694321138879857 1.061432730999581 0.0
1.441644339445862 1.496646809257773 0.0
3.554831642064292 0.501744031268764 0.0
2.720742750697982 1.350625068836981 0.0
2.282037541072919 0.639419348257894 0.0
2.813390610951134 0.7911761792959446 0.0
2.310700631729327 1.679155452525512 0.0
2.688751528716965 0.3206838402855661 0.0
2.211165393176843 1.213708510063781 0.0
0.9449004170027906 1.496357611130017 0.0
4.05509958299721 0.5036423888699835 0.0
3.025501657200047 0.7528388163714679 0.0
1.714778657098197 1.300039655550584 0.0
1.958264922640818 1.245975101752485 0.0
2.206386339371814 0.8500000000000001 0.0
3.336706349465057 0.704398544338507 0.0
4.529565928894533 0.555233644424822 0.0
0.4704340711054673 1.444766355575178 0.0
2.186983355180128 1.461437746541105 0.0
2.553715879020142 0.8859594914241276 0.0
2.782212276375736 0.5474565156445963 0.0
2.500206140967324 1.148517546040804 0.0
2.803373162317882 1.783880361314082 0.0
2.196626837682118 0.2161196386859174 0.0
1.735623536927746 1.664129737658362 0.0
3.268802735993943 0.3358439745752063 0.0
2.799454045372581 1.51553500056848 0.0
2.18762015375897 0.4992029885790829 0.0
2.813478812948685 1.18678600527921 0.0
2.400994471757771 0.7612313552289275 0.0
2.405444563947088 0.5311203927463914 0.0
2.583195945356847 1.473216966241769 0.0
3.734210872783077 0.7260959952797862 0.0
1.256500988572085 1.265010492624376 0.0
2.938353069321001 0.2909212553641365 0.0
2.061245308362322 1.709221243241415 0.0
2.182240881432738 1.001025052084926 0.0
2.830214026212788 0.9796244234047695 0.0
2.49023894829247 1.787687811117195 0.0
2.50976105170753 0.2123121888828049 0.0
1.194806886820808 1.686899295332255 0.0
3.805193113179192 0.3131007046677451 0.0
2.655039231860651 1.208917360245127 0.0
1.493530449555064 1.231198576616718 0.0
2.345622594939228 1.152685186835846 0.0
2.41380980106708 1.521513100394759 0.0
2.58979513084283 0.4863225267637531 0.0
2.135472648094309 0.7246460081196311 0.0
2.912574128751924 0.660128736186259 0.0
2.866043013605144 1.353074765380587 0.0
0.6928324624395237 1.69170809873467 0.0
4.307167537560476 0.3082919012653306 0.0
2.071506740582853 1.128535871978767 0.0
0.6831902494895832 1.302725441792086 0.0
4.316809750510417 0.6972745582079137 0.0
2.85534466702333 1.667491236848871 0.0
2.141886244104996 0.336139391754002 0.0
1.447743165823209 1.773242752731258 0.0
3.554386585610856 0.224002072703283 0.0
2.96485662756902 0.8593908564801968 0.0
3.240425509636175 0.8099760775594669 0.0
2.088410584923666 1.339747073830609 0.0
3.277530767974837 0.4939020807639749 0.0
3.534313505233912 0.7935179117986669 0.0
2.546683861402325 1.011736398479819 0.0
2.664793655038503 0.758149595673951 0.0
2.7009922066801 0.9086021996324817 0.0
1.844652141496971 1.153158997353228 0.0
2.575910747861113 1.316876286520138 0.0
3.994328863599566 0.7454319923658932 0.0
1.005671136400434 1.254568007634107 0.0
1.722192091537185 1.482888323667831 0.0
2.644751416415203 1.850904811198953 0.0
2.355248583584797 0.1490951888010467 0.0
2.31560379269905 1.25706851182614 0.0
2.129697972466254 0.5864366202645266 0.0
2.417220568140766 0.6397160301847872 0.0
2.867945749403976 1.069821281672812 0.0
3.182303046124178 0.6739667261124369 0.0
4.702774994215813 0.2953677284017739 0.0
0.2972250057841874 1.704632271598226 0.0
2.90043748182062 0.4316738443013928 0.0
2.486081387366873 0.3514585853722887 0.0
2.513918612633127 1.648541414627711 0.0
2.086778258621772 1.563111332603502 0.0
4.025359850459486 0.2638518716814435 0.0
0.9746401495405139 1.736148128318556 0.0
3.116389458098145 0.2933651166122753 0.0
1.885410353788165 1.707062521230272 0.0
2.327134732627959 1.833634230002939 0.0
2.672865267372041 0.1663657699970617 0.0
1.675899428547673 1.15999616666306 0.0
1.858973331615206 1.373382723203102 0.0
2.860266039499884 1.862282581689995 0.0
2.139733960500116 0.1377174183100045 0.0
1.257473476073173 1.479081588926576 0.0
3.731624273377778 0.5208146070195914 0.0
2.115038607594509 0.9238947313642476 0.0
0.2734661728051435 1.270630989444945 0.0
4.726533827194856 0.7293690105550548 0.0
2.699965708650878 1.465007479364728 0.0
2.298365077320068 0.5341069340550768 0.0
2.510583000486659 0.7602856732279889 0.0
3.370667741214912 0.8392397884376295 0.0
3.067541604254986 0.8806352314757129 0.0
2.90073732483139 1.443475210354718 0.0
2.264071206758208 0.9501943312745662 0.0
2.278663096491763 0.7489636980394857 0.0
1.952511813454414 1.110576661474517 0.0
2.744352083917141 0.687787375233183 0.0
1.566252941493004 1.383661493752942 0.0
2.437660520624072 0.8703573012735125 0.0
2.904826075218911 1.261819176983655 0.0
2.305967018083784 1.391390767447104 0.0
2.105729326736999 0.8145314366030645 0.0
2.428967188976762 1.236966721617647 0.0
3.060475488407204 0.1442825789852263 0.0
1.934979199332455 1.852811714602595 0.0
2.095475260770118 0.4348597444661615 0.0
2.914777085426361 1.759093454264707 0.0
2.084827330449114 0.2414252069642749 0.0
2.207128288422204 1.315477221019454 0.0
2.658751426439581 0.5773232450959589 0.0
2.612380011409894 1.114144853433198 0.0
2.897371573983894 1.569769587751228 0.0
0.5001010519014215 1.226918930408543 0.0
4.499898948098578 0.7730810695914568 0.0
2.753086810589338 1.690362801865437 0.0
2.246793053318422 0.3097947118702842 0.0
3.391580469276819 0.5673489147038103 0.0
3.035026488699165 0.6179797538177514 0.0
2.449819864663089 1.055109427275025 0.0
2.27653308928065 1.054384468582349 0.0
2.794675693196835 1.418106589018447 0.0
2.778866980525137 1.083577784614141 0.0
2.244522876020972 0.1116738824400324 0.0
2.755477123979027 1.888326117559968 0.0
2.323887028942199 0.8604475039748537 0.0
2.204900210979926 1.747483509451062 0.0
2.794853185869193 0.2526222191943996 0.0
2.320767315286541 1.530441598510029 0.0
1.550828143561484 1.606851581022188 0.0
2.796593663741882 1.288013595743853 0.0
3.436143660897262 0.3940652474171653 0.0
2.682379445750112 0.4493639922429763 0.0
3.242313228541417 0.154845696987206 0.0
1.75965289115187 1.844031320058407 0.0
1.3642341383496 1.159631408929946 0.0
1.980047380836635 1.36362624976796 0.0
2.070303834520089 1.451946835577872 0.0
2.55866460451515 1.229901920133861 0.0
4.26844523535139 0.499131154814159 0.0
0.7315547646486098 1.500868845185841 0.0
2.716116351489881 1.570657861970705 0.0
2.283245236086922 0.4299499540566049 0.0
4.50573905238033 0.204273435313806 0.0
0.4942609476196695 1.795726564686194 0.0
3.605070352001925 0.644396355247622 0.0
3.171946621948212 0.9019117497969773 0.0
3.40309695214227 0.1789624633199048 0.0
1.59690304785773 1.821037536680094 0.0
4.776800700354217 0.5074282293075529 0.0
0.2231992996457826 1.492571770692447 0.0
1.293020597407515 1.839015256431498 0.0
3.706979402592485 0.1609847435685022 0.0
1.398281395597716 1.351857389185529 0.0
2.880181082677912 0.1378504756446906 0.0
2.119200639021148 1.861833157788504 0.0
2.408646939494887 0.2452196658480275 0.0
2.591353060505113 1.754780334151973 0.0
1.146570081566377 1.160946826906423 0.0
3.853429918433624 0.8390531730935771 0.0
2.920846657438631 1.149071660619678 0.0
2.101132283911678 1.226382957654413 0.0
2.903672483971366 0.7774662795474147 0.0
2.516386521935266 0.571665255016536 0.0
2.475412447847437 1.444413760085193 0.0
2.903041575637174 0.5510905120278109 0.0
3.666476299189054 0.8553176740217776 0.0
1.558137053653031 1.119389262041809 0.0
3.867595456948903 0.1475874639835382 0.0
1.132404543051097 1.852412536016462 0.0
2.635017655944937 0.9730281566682446 0.0
2.436667490139274 1.901171080200935 0.0
2.563332509860726 0.09882891979906516 0.0
2.091598337090247 1.040423151014485 0.0
0.8316881289508771 1.172977685150089 0.0
4.168311871049123 0.827022314849911 0.0
3.648565743761548 0.3681286963687066 0.0
1.355037313653319 1.636865536133179 0.0
2.58412781071005 1.576586299624529 0.0
2.41587218928995 0.4234137003754711 0.0
2.083716468691946 0.6634832154935376 0.0
1.843942294678346 1.256771801786488 0.0
[...]
POINT_DATA 380

VECTORS Velocity float
0.0000000000000000 0.0000000000000000 0.0
0.0000000000000000 0.0000000000000000 0.0
0.0000000000000000 0.0000000000000000 0.0
0.0000000000000000 0.0000000000000000 0.0
0.0000000000000000 0.0000000000000000 0.0
0.9186854047260781 -0.1330567590140070 0.0
0.0000000000000000 0.0000000000000000 0.0
0.0000000000000000 0.0000000000000000 0.0
0.0000000000000000 0.0000000000000000 0.0
0.0000000000000000 0.0000000000000000 0.0
0.0000000000000000 0.0000000000000000 0.0
0.0000000000000000 0.0000000000000000 0.0
0.0000000000000000 0.0000000000000000 0.0
0.0000000000000000 0.0000000000000000 0.0
0.0000000000000000 0.0000000000000000 0.0
0.0000000000000000 0.0000000000000000 0.0
0.0000000000000000 0.0000000000000000 0.0
0.0000000000000000 0.0000000000000000 0.0
0.0000000000000000 0.0000000000000000 0.0
0.0000000000000000 0.0000000000000000 0.0
0.0000000000000000 0.0000000000000000 0.0
0.0000000000000000 0.0000000000000000 0.0
0.0000000000000000 0.0000000000000000 0.0
0.0000000000000000 0.0000000000000000 0.0
0.0000000000000000 0.0000000000000000 0.0
0.0000000000000000 0.0000000000000000 0.0
0.0000000000000000 0.0000000000000000 0.0
0.0000000000000000 0.0000000000000000 0.0
0.0000000000000000 0.0000000000000000 0.0
0.0000000000000000 0.0000000000000000 0.0
0.0000000000000000 0.0000000000000000 0.0
0.0000000000000000 0.0000000000000000 0.0
0.0000000000000000 0.0000000000000000 0.0
0.0000000000000000 0.0000000000000000 0.0
0.0000000000000000 0.0000000000000000 0.0
0.0000000000000000 0.0000000000000000 0.0
0.0000000000000000 0.0000000000000000 0.0
0.0000000000000000 0.0000000000000000 0.0
0.0000000000000000 0.0000000000000000 0.0
0.0000000000000000 0.0000000000000000 0.0
0.0000000000000000 0.0000000000000000 0.0
0.0000000000000000 0.0000000000000000 0.0
0.0000000000000000 0.0000000000000000 0.0
1.1551823891450126 0.3642115515500436 0.0
0.7957331760087549 0.0634194344300701 0.0
1.1395816208016141 -0.2965073585595646 0.0
0.0000000000000000 0.0000000000000000 0.0
0.0000000000000000 0.0000000000000000 0.0
0.0000000000000000 0.0000000000000000 0.0
0.0000000000000000 0.0000000000000000 0.0
0.0000000000000000 0.0000000000000000 0.0
0.0000000000000000 0.0000000000000000 0.0
0.0000000000000000 0.0000000000000000 0.0
0.0000000000000000 0.0000000000000000 0.0
0.0000000000000000 0.0000000000000000 0.0
0.0000000000000000 0.0000000000000000 0.0
0.0000000000000000 0.0000000000000000 0.0
0.0000000000000000 0.0000000000000000 0.0
0.0000000000000000 0.0000000000000000 0.0
0.0000000000000000 0.0000000000000000 0.0
0.0000000000000000 0.0000000000000000 0.0
0.0000000000000000 0.0000000000000000 0.0
0.0000000000000000 0.0000000000000000 0.0
0.0000000000000000 0.0000000000000000 0.0
0.0000000000000000 0.0000000000000000 0.0
0.0000000000000000 0.0000000000000000 0.0
0.0000000000000000 0.0000000000000000 0.0
0.0000000000000000 0.0000000000000000 0.0
0.0000000000000000 0.0000000000000000 0.0
0.0000000000000000 0.0000000000000000 0.0
0.0000000000000000 0.0000000000000000 0.0
0.0000000000000000 0.0000000000000000 0.0
0.0000000000000000 0.0000000000000000 0.0
0.0000000000000000 0.0000000000000000 0.0
0.0000000000000000 0.0000000000000000 0.0
0.0000000000000000 0.0000000000000000 0.0
0.0000000000000000 0.0000000000000000 0.0
0.0000000000000000 0.0000000000000000 0.0
0.0000000000000000 0.0000000000000000 0.0
1.0000000000000000 0.0000000000000000 0.0
1.0000000000000000 0.0000000000000000 0.0
1.0000000000000000 0.0000000000000000 0.0
0.9222490683061980 -0.8296461991330133 0.0
0.8066289454219718 -0.8529774327299783 0.0
1.5167769287100539 -0.2564853265642070 0.0
1.4593137895617083 -0.2521371189422262 0.0
0.5887430051682270 -1.1975442517640107 0.0
0.2672143231976580 -0.2064844067177414 0.0
0.2277564766922438 -0.1959388412288876 0.0
0.5739441311705519 -1.2191415560535217 0.0
1.5744669867692695 -0.0764882032764778 0.0
1.6112569069148115 -0.1196536323191008 0.0
0.2742768902252734 -0.6915424329725115 0.0
0.2527880969100578 -0.6080690580818514 0.0
1.1620574139003699 -0.9917532545694324 0.0
0.7039770243628616 -0.2037404036510075 0.0
0.6625402746840205 -0.1904511986976476 0.0
1.1585197101722611 -0.9013313092340182 0.0
1.6001453761694324 -0.0195112861523963 0.0
1.5975306684804382 -0.0090829422089051 0.0
1.4943198645021998 -0.3503687469661303 0.0
1.5000076334638948 -0.0589050030205237 0.0
1.4360044838544868 -0.3109808864116675 0.0
0.2568535085995442 -0.8258587349351207 0.0
1.5172741329157131 -0.0673558946868514 0.0
1.5836325721265894 0.0097238079441689 0.0
1.5334869576719095 0.0359677854031077 0.0
1.2878497764288412 -0.4987893096874154 0.0
0.6951625391783326 -1.1956124885988209 0.0
1.1856492253835487 -0.4549642633952061 0.0
0.6854555312159198 -1.2057089708119322 0.0
0.0537581354662386 -0.0662907680764297 0.0
0.0443012304538840 -0.0572336178302487 0.0
1.1909080002084140 -0.0815558076238974 0.0
1.1142064056058729 -0.0923678707348550 0.0
0.1085898322246173 -0.3218717068805731 0.0
0.0779469973299061 -0.2597061551186964 0.0
0.1733396389600266 -0.7444193089675264 0.0
0.4938138176168306 -0.9719430683566946 0.0
0.4555537068324927 -0.5582810777614179 0.0
0.5267350954466918 -0.5644148496550278 0.0
1.3927461007655508 -0.0123493373577189 0.0
1.3074942783351684 -0.0808334889433574 0.0
0.8078867850727941 -0.1286658943950112 0.0
0.8773167853593902 -0.1311066827746594 0.0
0.5553800119755797 -0.9833811026269657 0.0
0.6237509201350068 -1.0934986398814872 0.0
0.2977888451776062 -0.0346532669380258 0.0
0.2753295192089828 -0.0391074920009232 0.0
1.2773427904714458 0.0117782959049097 0.0
1.2779642501302819 0.0077505100846364 0.0
0.4659483309455583 -1.0533889244121120 0.0
1.2568599749951730 0.0015750151758733 0.0
0.8812620602479043 -1.0960980273599459 0.0
0.7851185061492539 -0.4811099708187043 0.0
0.7956668786515307 -0.5218584767752100 0.0
0.0288384583729293 -0.3566126073849633 0.0
1.5081741613030120 -0.5455405246714776 0.0
0.0641054509095420 -0.3862553246992223 0.0
1.3446606478072980 0.0064561173238525 0.0
1.3450716526435911 0.0148960787642934 0.0
1.0958508920605170 -0.7387118488769189 0.0
1.3761512638197639 -0.0384058381253017 0.0
1.3735157989603546 -0.0565389766192400 0.0
0.0453247780002260 -0.1131110355431125 0.0
0.0393826387182440 -0.0956763325462592 0.0
0.7915954750703644 -0.0087341353126992 0.0
0.7746686684945919 -0.0272746469402687 0.0
1.2391840731579851 -0.5639615303691908 0.0
1.2445410800156886 -0.1004048352289032 0.0
1.4500321641945562 -0.5556889587534140 0.0
1.5356118761503519 -0.0928152876449656 0.0
1.2088994472770109 -0.0646623060640375 0.0
0.6626027942149051 -1.2607479768927976 0.0
0.9453863130035425 -0.9707466320242697 0.0
0.8067714987925516 -1.2394864473259959 0.0
1.0703053120597252 -0.0571100311279423 0.0
0.5956426865036263 -0.9034591834001662 0.0
1.0658783027119669 -0.0517046252805906 0.0
1.0677368659489430 -0.0526208534380672 0.0
1.5796033059813317 -0.0665198073025564 0.0
0.0921006431203209 -0.0383233267887051 0.0
0.0813253036717595 -0.0353758167773744 0.0
1.0488069648675420 -0.9139195385068939 0.0
0.0416031514396446 -0.1914673939097185 0.0
0.4857335095371384 -0.7467398985723904 0.0
0.2458406149728780 -0.7735848438998937 0.0
1.5664939073296387 -0.1612373968788782 0.0
1.2290370383816320 -0.2189145028526796 0.0
1.2102351175649748 -0.2003331407429878 0.0
1.1892793591561943 -0.2683222335388342 0.0
0.4068871451357441 -0.2255789404581212 0.0
0.4448339482969278 -0.2215252562925322 0.0
1.2720554487906544 -0.2945834431976249 0.0
1.0451251054283650 -0.0266011389421825 0.0
1.0430280113861077 -0.0274366082457785 0.0
0.9377622824492261 -0.1125141812757136 0.0
1.0131824427159242 -0.1172076768115693 0.0
0.2716572281364566 -0.0529530151264869 0.0
0.2596370230483824 -0.0493224440797785 0.0
0.8351366367781901 -0.0185587059065155 0.0
1.5829129773181743 -0.1497534992841938 0.0
0.0106111615719600 -0.0179790471513644 0.0
0.0085404893323629 -0.0150000818793382 0.0
1.5372878931192786 -0.0975915229703091 0.0
1.5698697720152397 -0.1288171937701338 0.0
0.1397564957610287 -0.4876931691652400 0.0
1.0959978728767252 0.2306191133562316 0.0
1.0936500154051507 0.2310894064520367 0.0
0.2751061252621189 -0.5098695581887398 0.0
0.2308194260275127 -0.4387005388061881 0.0
0.6752114478383529 -1.0529375009954973 0.0
0.9317388360645125 -0.0545825303325970 0.0
0.8775731595299758 -0.1759105310326906 0.0
0.0358957243687988 -0.1814994026029618 0.0
0.4702080557546918 -1.0993517711113132 0.0
0.2656239398675617 -0.8291062284144678 0.0
0.7779866715185890 -0.1230334376720604 0.0
1.1577683440009885 -0.8080759222588045 0.0
1.5613376848576637 -0.0488798728404471 0.0
0.5772548987619116 -1.1539068768454410 0.0
0.0307909836908598 -0.3134470375326227 0.0
1.1247244564797829 -0.6795026451880463 0.0
0.0694953941959261 -0.2903447994810961 0.0
0.8189487130229517 -1.0645198414303652 0.0
0.4056449172861121 -0.0213177240038877 0.0
0.4315730961977951 -0.0191607868846434 0.0
0.0367755167625584 -0.0916728933659907 0.0
0.0155910976663897 -0.0311942363788829 0.0
0.0128162681650840 -0.0257818695002824 0.0
1.2919998474867456 -0.7657201131946106 0.0
0.9826685778780840 -0.6587270428678145 0.0
0.5956319906241848 -1.2013034419311013 0.0
0.0250464150805006 -0.1157210779463478 0.0
0.8659902244329151 0.1645795471613878 0.0
0.8386721775933282 0.1312712258834986 0.0
0.1387315774002067 -0.1676586155222039 0.0
0.1176032458334662 -0.1480803643950616 0.0
1.6435635169212337 -0.1221525506996515 0.0
1.6073711127625492 -0.3171757333718799 0.0
0.6746444728778691 -1.2509338217159618 0.0
0.7091399478805644 -1.1335374301032204 0.0
0.1383640299538160 -0.4222296587986822 0.0
0.4216613129999805 -1.0643638672179609 0.0
0.0291929043354140 -0.0242216191451600 0.0
0.0342696921710470 -0.0275030597556436 0.0
0.4567678469120765 -1.0585063054155848 0.0
0.6496962980823839 -0.1385298475516622 0.0
0.6067976870997355 -0.1232421311173026 0.0
1.0001838045820715 -0.4429230130374855 0.0
1.3585239962072360 -0.0297277241003396 0.0
0.1585877786994060 -0.5940204730064245 0.0
1.3019475387296180 -0.0657958750611577 0.0
0.9453800842625968 -0.4172741029068559 0.0
0.5007468313831955 -0.0333503636421190 0.0
0.5284511407660869 -0.0360584753009806 0.0
0.8945819260503238 -0.0193433671731072 0.0
1.5426831666704128 -0.3419784248315512 0.0
1.4758411069455235 -0.4070189511201134 0.0
0.5944672574409058 -1.0785555978229162 0.0
1.6000760267620302 -0.0535657606805704 0.0
1.5899138183162556 -0.0450808212114380 0.0
0.2062975764245486 -0.3019883171686357 0.0
0.1744517653711443 -0.2710124197564270 0.0
0.7799764717940862 -0.1433719001871371 0.0
0.8008313966202337 -0.1598513446988248 0.0
1.5610025301657644 -0.0776458998962735 0.0
0.5604665053819335 -0.0555392984886270 0.0
0.6305751427900774 -0.0793568499975913 0.0
0.6584467010408737 -0.0803489559631893 0.0
1.2611516430091776 0.0575389258545046 0.0
1.2108940231793286 0.0466688322761451 0.0
0.6382682860453969 0.0333036496266111 0.0
0.6384320748028718 0.0301313984384795 0.0
1.4570492921133398 -0.0514680918853525 0.0
0.3101175282364867 -0.0557906143751224 0.0
0.3313982680855528 -0.0603699511101861 0.0
0.2199119886474331 -0.1150068368263740 0.0
0.2437057253786098 -0.1191193227147318 0.0
0.7328182398460942 0.0586750265971393 0.0
0.7341847711933609 0.1057175052311785 0.0
0.0446165653563768 -0.3465150077620507 0.0
1.3144038482698501 -0.6992721945310130 0.0
1.3481303955530906 -0.7267134409464564 0.0
0.6754558993675949 -0.6804824779954829 0.0
0.7793941043243255 -0.6180129710614801 0.0
1.4365149236626606 -0.4213890765800652 0.0
0.6078763423341373 0.0248704417079615 0.0
0.6292023088767845 -0.0157112736755539 0.0
0.5363986284840756 -0.1093324850686068 0.0
0.5388508481233839 -0.1068603601783908 0.0
0.6896952719024046 -1.2721342227961012 0.0
0.0927447995061320 -0.0255244419930142 0.0
0.0863700055028933 -0.0262908462862749 0.0
0.5656515284356994 -0.7084488230578416 0.0
0.6719788711264723 -0.0979046722548759 0.0
0.6705090426516008 -0.1057378439733599 0.0
1.3071023813566478 -0.1411442217032352 0.0
1.3136824084677776 -0.1130220486872309 0.0
0.4548460841974962 -0.3337358437151275 0.0
0.3891589343697605 -0.3281431600330232 0.0
0.0035081968257402 -0.1517722436203849 0.0
1.3667560095489117 -0.1404046501639627 0.0
0.6047959105373599 -0.7762361072006819 0.0
0.1135129578964518 -0.4120053775692438 0.0
0.4359648246433460 -0.7446075571604441 0.0
0.9752629917740802 -0.9494147779591704 0.0
0.9035817648972091 -1.1428962362425157 0.0
1.4972869433093019 -0.0658756840801171 0.0
1.4928527679057646 -0.0968987325355332 0.0
0.6532978059503569 -1.2240204630205702 0.0
1.0497660599260410 -0.2787034571175295 0.0
0.9950566629766004 -0.2268901495469060 0.0
0.5035800467273434 -0.1710981525504467 0.0
0.4799856271471951 -0.1758047403654927 0.0
1.5613372368590863 -0.1087888775532915 0.0
1.0002099075477227 -1.1031872291777045 0.0
0.4189688905089995 -1.0703633826020404 0.0
1.2133905905996656 -0.1678472629210308 0.0
1.5661387242663776 -0.0923381258502994 0.0
1.5756503193646185 -0.0976855157431192 0.0
1.2902965904215764 -0.1700047020117466 0.0
0.0924161816867323 -0.0117168135300664 0.0
0.1017025211592199 -0.0101060770342215 0.0
0.4210696698991566 0.0686145780443543 0.0
1.3632620898400500 -0.1371818289115566 0.0
1.3205055019103940 0.0372757693672691 0.0
0.4428257657637156 -0.9182792797265816 0.0
0.1025296610916366 -0.2239197522822563 0.0
0.0815565143735523 -0.1862203134980499 0.0
0.1427903712544894 -0.0843668383357454 0.0
0.1241630396042493 -0.0768852007041223 0.0
0.3695921580741452 -0.6521778315659289 0.0
0.0098195535918389 -0.1126483191300576 0.0
0.9249986615684940 -0.8909832643321327 0.0
0.5211305415743671 0.0366090874812737 0.0
0.5040717255765750 0.0190469416773549 0.0
1.4811662863899127 -0.0483248381391740 0.0
1.4810962900447611 -0.0599002183732335 0.0
0.9522283313337305 -1.0760365762858604 0.0
1.6055555957014327 -0.1651779033492007 0.0
0.4301933747692259 -0.0486277788052121 0.0
0.0144034614599202 -0.0388303555174469 0.0
0.0099059675143326 -0.0323355848435820 0.0
0.3767672445175553 -0.8138327643817589 0.0
0.0177513927585736 -0.1013207485662939 0.0
0.7352056339800213 -0.9659580281142660 0.0
1.4537150104224859 -0.1379685900512110 0.0
0.6420854231543263 -0.4348431544616898 0.0
0.5928794889574820 -0.4484259825472993 0.0
0.6411466298559532 -1.2349632191896123 0.0
0.6699145175608567 0.0780808916347662 0.0
0.6672274536993633 0.0808096871691997 0.0
0.8015086199048120 -1.1831500842974787 0.0
0.1296698220857301 -0.5867336677967300 0.0
0.1091120990651675 -0.4562906602132840 0.0
0.0095498728048168 -0.1092820644759049 0.0
0.8421344726966540 0.0649310970444124 0.0
0.8047644552058549 0.0969140435638108 0.0
0.8330153679774224 -0.0507545246437800 0.0
0.8045824628522608 -0.0670123736102251 0.0
0.3176136261283158 -0.8805204441037211 0.0
0.6374519877140329 -0.1460314968634536 0.0
0.7882995517075397 -1.0483323949739034 0.0
1.3741571412851437 -0.7755244098452261 0.0
0.5306207602824052 0.0850270635387817 0.0
1.4803963876326600 -0.0121682639148798 0.0
1.4842610841138946 -0.0081273946985288 0.0
1.0384577116623015 -0.9882492102276147 0.0
0.7463497081328325 -1.2031389297649120 0.0
1.3246864651945585 -0.1520838092844120 0.0
0.7182748873822495 -1.2188174205331233 0.0
0.0866666637000402 -0.3866651877908640 0.0
1.1769177899630132 -0.0520867195151732 0.0
0.3742274920624337 -0.9102920147048268 0.0
1.6561100778679163 -0.0899267723207825 0.0
0.4120469787542625 -0.0053331074808304 0.0
1.5813256262457653 -0.0860770993409534 0.0
1.5503867283774029 -0.0992779874659308 0.0
-0.0060078744611081 -0.0012708481041884 0.0
-0.0066414643744014 -0.0016292739131021 0.0
0.5346935527892600 0.0429379815373069 0.0
0.3408036452741820 -0.0426460527729583 0.0
-0.0030913484407367 -0.0057126525140518 0.0
-0.0030365927098997 -0.0067249335371364 0.0
0.5568111410133600 -0.0346242789760504 0.0
0.6421416342984422 -0.9130561301107636 0.0
0.5591478251603316 -0.0341134023030892 0.0
0.5533382205657548 -0.0270463250649635 0.0
0.6825213422780071 -0.3247109418927440 0.0
0.7370775682252394 -0.3221769755354935 0.0
0.6431286315329281 -0.7981654793446709 0.0
0.2933933762512950 -0.3885885209124388 0.0
0.3419751229366527 -0.4348245958797093 0.0
-0.0062307050563237 -0.0034187535443294 0.0
-0.0057631630085081 -0.0027709379256827 0.0
1.2767439612946185 -0.4576837066388587 0.0
1.3612407360474921 -0.6531785650364447 0.0
0.9503530681438969 -0.6392794552319306 0.0
0.7394758269722113 -0.4232495461571665 0.0
