# vtk DataFile Version 3.0
LucasCarvalhoTCC Results
ASCII

DATASET POLYDATA
FIELD FieldData 1
TIME 1 1 double
3.7

POINTS 380 float
0.0 2.0 0.0
2.0 2.0 0.0
3.0 2.0 0.0
3.0 1.0 0.0
5.0 1.0 0.0
5.0 0.0 0.0
3.0 0.0 0.0
2.0 0.0 0.0
2.0 1.0 0.0
0.0 1.0 0.0
0.2643114543905713 2.0 0.0
0.5169795502969444 2.0 0.0
0.7585171880292413 2.0 0.0
0.9894145836600268 2.0 0.0
1.210140497826619 2.0 0.0
1.421143008568911 2.0 0.0
1.622850459538253 2.0 0.0
1.815672303789548 2.0 0.0
2.188552664328277 2.0 0.0
2.359329284173903 2.0 0.0
2.514005696104645 2.0 0.0
2.654099788331341 2.0 0.0
2.780986322989182 2.0 0.0
2.895910470953052 2.0 0.0
3.0 1.9 0.0
3.0 1.8 0.0
3.0 1.7 0.0
3.0 1.6 0.0
3.0 1.5 0.0
3.0 1.4 0.0
3.0 1.3 0.0
3.0 1.2 0.0
3.0 1.1 0.0
3.105031513416626 1.0 0.0
3.221094637894669 1.0 0.0
3.349348047908936 1.0 0.0
3.491072094154001 1.0 0.0
3.647681638607018 1.0 0.0
3.820740106959136 1.0 0.0
4.011975186625977 1.0 0.0
4.223295996958671 1.0 0.0
4.456812096249916 1.0 0.0
4.714854728122151 1.0 0.0
5.0 0.7500000000000003 0.0
5.0 0.5000000000000012 0.0
5.0 0.2500000000000011 0.0
4.735688545609428 0.0 0.0
4.483020449703056 0.0 0.0
4.241482811970759 0.0 0.0
4.010585416339973 0.0 0.0
3.789859502173381 0.0 0.0
3.578856991431089 0.0 0.0
3.377149540461747 0.0 0.0
3.184327696210452 0.0 0.0
2.811447335671723 0.0 0.0
2.640670715826097 0.0 0.0
2.485994303895355 0.0 0.0
2.345900211668659 0.0 0.0
2.219013677010818 0.0 0.0
2.104089529046948 0.0 0.0
2.0 0.1 0.0
2.0 0.2 0.0
2.0 0.3 0.0
2.0 0.4 0.0
2.0 0.5 0.0
2.0 0.6 0.0
2.0 0.7 0.0
2.0 0.8 0.0
2.0 0.9 0.0
1.894968486583374 1.0 0.0
1.77890536210533 1.0 0.0
1.650651952091063 1.0 0.0
1.508927905845999 1.0 0.0
1.352318361392982 1.0 0.0
1.179259893040864 1.0 0.0
0.9880248133740233 1.0 0.0
0.7767040030413299 1.0 0.0
0.5431879037500846 1.0 0.0
0.2851452718778493 1.0 0.0
0.0 1.25 0.0
0.0 1.499999999999999 0.0
0.0 1.749999999999999 0.0
2.426045913985508 1.348290599604586 0.0
2.562221387987337 0.6558377602558874 0.0
1.966703786708101 1.492474555319359 0.0
3.033486484223225 0.4973568340887861 0.0
2.371610747520728 0.97814425147097 0.0
2.648098402859118 1.648016516253387 0.0
2.351901597140882 0.3519834837466129 0.0
2.694321138879857 1.061432730999581 0.0
1.441644339445862 1.496646809257773 0.0
3.554831642064292 0.501744031268764 0.0
2.720742750697982 1.350625068836981 0.0
2.282037541072919 0.639419348257894 0.0
2.813390610951134 0.7911761792959446 0.0
2.310700631729327 1.679155452525512 0.0
2.688751528716965 0.3206838402855661 0.0
2.211165393176843 1.213708510063781 0.0
0.9449004170027906 1.496357611130017 0.0
4.05509958299721 0.5036423888699835 0.0
3.025501657200047 0.7528388163714679 0.0
1.714778657098197 1.300039655550584 0.0
1.958264922640818 1.245975101752485 0.0
2.206386339371814 0.8500000000000001 0.0
3.336706349465057 0.704398544338507 0.0
4.529565928894533 0.555233644424822 0.0
0.4704340711054673 1.444766355575178 0.0
2.186983355180128 1.461437746541105 0.0
2.553715879020142 0.8859594914241276 0.0
2.782212276375736 0.5474565156445963 0.0
2.500206140967324 1.148517546040804 0.0
2.803373162317882 1.783880361314082 0.0
2.196626837682118 0.2161196386859174 0.0
1.735623536927746 1.664129737658362 0.0
3.268802735993943 0.3358439745752063 0.0
2.799454045372581 1.51553500056848 0.0
2.18762015375897 0.4992029885790829 0.0
2.813478812948685 1.18678600527921 0.0
2.400994471757771 0.7612313552289275 0.0
2.405444563947088 0.5311203927463914 0.0
2.583195945356847 1.473216966241769 0.0
3.734210872783077 0.7260959952797862 0.0
1.256500988572085 1.265010492624376 0.0
2.938353069321001 0.2909212553641365 0.0
2.061245308362322 1.709221243241415 0.0
2.182240881432738 1.001025052084926 0.0
2.830214026212788 0.9796244234047695 0.0
2.49023894829247 1.787687811117195 0.0
2.50976105170753 0.2123121888828049 0.0
1.194806886820808 1.686899295332255 0.0
3.805193113179192 0.3131007046677451 0.0
2.655039231860651 1.208917360245127 0.0
1.493530449555064 1.231198576616718 0.0
2.345622594939228 1.152685186835846 0.0
2.41380980106708 1.521513100394759 0.0
2.58979513084283 0.4863225267637531 0.0
2.135472648094309 0.7246460081196311 0.0
2.912574128751924 0.660128736186259 0.0
2.866043013605144 1.353074765380587 0.0
0.6928324624395237 1.69170809873467 0.0
4.307167537560476 0.3082919012653306 0.0
2.071506740582853 1.128535871978767 0.0
0.6831902494895832 1.302725441792086 0.0
4.316809750510417 0.6972745582079137 0.0
2.85534466702333 1.667491236848871 0.0
2.141886244104996 0.336139391754002 0.0
1.447743165823209 1.773242752731258 0.0
3.554386585610856 0.224002072703283 0.0
2.96485662756902 0.8593908564801968 0.0
3.240425509636175 0.8099760775594669 0.0
2.088410584923666 1.339747073830609 0.0
3.277530767974837 0.4939020807639749 0.0
3.534313505233912 0.7935179117986669 0.0
2.546683861402325 1.011736398479819 0.0
2.664793655038503 0.758149595673951 0.0
2.7009922066801 0.9086021996324817 0.0
1.844652141496971 1.153158997353228 0.0
2.575910747861113 1.316876286520138 0.0
3.994328863599566 0.7454319923658932 0.0
1.005671136400434 1.254568007634107 0.0
1.722192091537185 1.482888323667831 0.0
2.644751416415203 1.850904811198953 0.0
2.355248583584797 0.1490951888010467 0.0
2.31560379269905 1.25706851182614 0.0
2.129697972466254 0.5864366202645266 0.0
2.417220568140766 0.6397160301847872 0.0
2.867945749403976 1.069821281672812 0.0
3.182303046124178 0.6739667261124369 0.0
4.702774994215813 0.2953677284017739 0.0
0.2972250057841874 1.704632271598226 0.0
2.90043748182062 0.4316738443013928 0.0
2.486081387366873 0.3514585853722887 0.0
2.513918612633127 1.648541414627711 0.0
2.086778258621772 1.563111332603502 0.0
4.025359850459486 0.2638518716814435 0.0
0.9746401495405139 1.736148128318556 0.0
3.116389458098145 0.2933651166122753 0.0
1.885410353788165 1.707062521230272 0.0
2.327134732627959 1.833634230002939 0.0
2.672865267372041 0.1663657699970617 0.0
1.675899428547673 1.15999616666306 0.0
1.858973331615206 1.373382723203102 0.0
2.860266039499884 1.862282581689995 0.0
2.139733960500116 0.1377174183100045 0.0
1.257473476073173 1.479081588926576 0.0
3.731624273377778 0.5208146070195914 0.0
2.115038607594509 0.9238947313642476 0.0
0.2734661728051435 1.270630989444945 0.0
4.726533827194856 0.7293690105550548 0.0
2.699965708650878 1.465007479364728 0.0
2.298365077320068 0.5341069340550768 0.0
2.510583000486659 0.7602856732279889 0.0
3.370667741214912 0.8392397884376295 0.0
3.067541604254986 0.8806352314757129 0.0
2.90073732483139 1.443475210354718 0.0
2.264071206758208 0.9501943312745662 0.0
2.278663096491763 0.7489636980394857 0.0
1.952511813454414 1.110576661474517 0.0
2.744352083917141 0.687787375233183 0.0
1.566252941493004 1.383661493752942 0.0
2.437660520624072 0.8703573012735125 0.0
2.904826075218911 1.261819176983655 0.0
2.305967018083784 1.391390767447104 0.0
2.105729326736999 0.8145314366030645 0.0
2.428967188976762 1.236966721617647 0.0
3.060475488407204 0.1442825789852263 0.0
1.934979199332455 1.852811714602595 0.0
2.095475260770118 0.4348597444661615 0.0
2.914777085426361 1.759093454264707 0.0
2.084827330449114 0.2414252069642749 0.0
2.207128288422204 1.315477221019454 0.0
2.658751426439581 0.5773232450959589 0.0
2.612380011409894 1.114144853433198 0.0
2.897371573983894 1.569769587751228 0.0
0.5001010519014215 1.226918930408543 0.0
4.499898948098578 0.7730810695914568 0.0
2.753086810589338 1.690362801865437 0.0
2.246793053318422 0.3097947118702842 0.0
3.391580469276819 0.5673489147038103 0.0
3.035026488699165 0.6179797538177514 0.0
2.449819864663089 1.055109427275025 0.0
2.27653308928065 1.054384468582349 0.0
2.794675693196835 1.418106589018447 0.0
2.778866980525137 1.083577784614141 0.0
2.244522876020972 0.1116738824400324 0.0
2.755477123979027 1.888326117559968 0.0
2.323887028942199 0.8604475039748537 0.0
2.204900210979926 1.747483509451062 0.0
2.794853185869193 0.2526222191943996 0.0
2.320767315286541 1.530441598510029 0.0
1.550828143561484 1.606851581022188 0.0
2.796593663741882 1.288013595743853 0.0
3.436143660897262 0.3940652474171653 0.0
2.682379445750112 0.4493639922429763 0.0
3.242313228541417 0.154845696987206 0.0
1.75965289115187 1.844031320058407 0.0
1.3642341383496 1.159631408929946 0.0
1.980047380836635 1.36362624976796 0.0
2.070303834520089 1.451946835577872 0.0
2.55866460451515 1.229901920133861 0.0
4.26844523535139 0.499131154814159 0.0
0.7315547646486098 1.500868845185841 0.0
2.716116351489881 1.570657861970705 0.0
2.283245236086922 0.4299499540566049 0.0
4.50573905238033 0.204273435313806 0.0
0.4942609476196695 1.795726564686194 0.0
3.605070352001925 0.644396355247622 0.0
3.171946621948212 0.9019117497969773 0.0
3.40309695214227 0.1789624633199048 0.0
1.59690304785773 1.821037536680094 0.0
4.776800700354217 0.5074282293075529 0.0
0.2231992996457826 1.492571770692447 0.0
1.293020597407515 1.839015256431498 0.0
3.706979402592485 0.1609847435685022 0.0
1.398281395597716 1.351857389185529 0.0
2.880181082677912 0.1378504756446906 0.0
2.119200639021148 1.861833157788504 0.0
2.408646939494887 0.2452196658480275 0.0
2.591353060505113 1.754780334151973 0.0
1.146570081566377 1.160946826906423 0.0
3.853429918433624 0.8390531730935771 0.0
2.920846657438631 1.149071660619678 0.0
2.101132283911678 1.226382957654413 0.0
2.903672483971366 0.7774662795474147 0.0
2.516386521935266 0.571665255016536 0.0
2.475412447847437 1.444413760085193 0.0
2.903041575637174 0.5510905120278109 0.0
3.666476299189054 0.8553176740217776 0.0
1.558137053653031 1.119389262041809 0.0
3.867595456948903 0.1475874639835382 0.0
1.132404543051097 1.852412536016462 0.0
2.635017655944937 0.9730281566682446 0.0
2.436667490139274 1.901171080200935 0.0
2.563332509860726 0.09882891979906516 0.0
2.091598337090247 1.040423151014485 0.0
0.8316881289508771 1.172977685150089 0.0
4.168311871049123 0.827022314849911 0.0
3.648565743761548 0.3681286963687066 0.0
1.355037313653319 1.636865536133179 0.0
2.58412781071005 1.576586299624529 0.0
2.41587218928995 0.4234137003754711 0.0
2.083716468691946 0.6634832154935376 0.0
1.843942294678346 1.256771801786488 0.0
[...]
POINT_DATA 380

VECTORS Velocity float
0.0000000000000000 0.0000000000000000 0.0
0.0000000000000000 0.0000000000000000 0.0
0.0000000000000000 0.0000000000000000 0.0
0.0000000000000000 0.0000000000000000 0.0
0.0000000000000000 0.0000000000000000 0.0
0.9186859489226417 -0.1330542654712293 0.0
0.0000000000000000 0.0000000000000000 0.0
0.0000000000000000 0.0000000000000000 0.0
0.0000000000000000 0.0000000000000000 0.0
0.0000000000000000 0.0000000000000000 0.0
0.0000000000000000 0.0000000000000000 0.0
0.0000000000000000 0.0000000000000000 0.0
0.0000000000000000 0.0000000000000000 0.0
0.0000000000000000 0.0000000000000000 0.0
0.0000000000000000 0.0000000000000000 0.0
0.0000000000000000 0.0000000000000000 0.0
0.0000000000000000 0.0000000000000000 0.0
0.0000000000000000 0.0000000000000000 0.0
0.0000000000000000 0.0000000000000000 0.0
0.0000000000000000 0.0000000000000000 0.0
0.0000000000000000 0.0000000000000000 0.0
0.0000000000000000 0.0000000000000000 0.0
0.0000000000000000 0.0000000000000000 0.0
0.0000000000000000 0.0000000000000000 0.0
0.0000000000000000 0.0000000000000000 0.0
0.0000000000000000 0.0000000000000000 0.0
0.0000000000000000 0.0000000000000000 0.0
0.0000000000000000 0.0000000000000000 0.0
0.0000000000000000 0.0000000000000000 0.0
0.0000000000000000 0.0000000000000000 0.0
0.0000000000000000 0.0000000000000000 0.0
0.0000000000000000 0.0000000000000000 0.0
0.0000000000000000 0.0000000000000000 0.0
0.0000000000000000 0.0000000000000000 0.0
0.0000000000000000 0.0000000000000000 0.0
0.0000000000000000 0.0000000000000000 0.0
0.0000000000000000 0.0000000000000000 0.0
0.0000000000000000 0.0000000000000000 0.0
0.0000000000000000 0.0000000000000000 0.0
0.0000000000000000 0.0000000000000000 0.0
0.0000000000000000 0.0000000000000000 0.0
0.0000000000000000 0.0000000000000000 0.0
0.0000000000000000 0.0000000000000000 0.0
1.1551932443992889 0.3641696650327169 0.0
0.7957333700631283 0.0633411255425405 0.0
1.1395744410620217 -0.2965526624912229 0.0
0.0000000000000000 0.0000000000000000 0.0
0.0000000000000000 0.0000000000000000 0.0
0.0000000000000000 0.0000000000000000 0.0
0.0000000000000000 0.0000000000000000 0.0
0.0000000000000000 0.0000000000000000 0.0
0.0000000000000000 0.0000000000000000 0.0
0.0000000000000000 0.0000000000000000 0.0
0.0000000000000000 0.0000000000000000 0.0
0.0000000000000000 0.0000000000000000 0.0
0.0000000000000000 0.0000000000000000 0.0
0.0000000000000000 0.0000000000000000 0.0
0.0000000000000000 0.0000000000000000 0.0
0.0000000000000000 0.0000000000000000 0.0
0.0000000000000000 0.0000000000000000 0.0
0.0000000000000000 0.0000000000000000 0.0
0.0000000000000000 0.0000000000000000 0.0
0.0000000000000000 0.0000000000000000 0.0
0.0000000000000000 0.0000000000000000 0.0
0.0000000000000000 0.0000000000000000 0.0
0.0000000000000000 0.0000000000000000 0.0
0.0000000000000000 0.0000000000000000 0.0
0.0000000000000000 0.0000000000000000 0.0
0.0000000000000000 0.0000000000000000 0.0
0.0000000000000000 0.0000000000000000 0.0
0.0000000000000000 0.0000000000000000 0.0
0.0000000000000000 0.0000000000000000 0.0
0.0000000000000000 0.0000000000000000 0.0
0.0000000000000000 0.0000000000000000 0.0
0.0000000000000000 0.0000000000000000 0.0
0.0000000000000000 0.0000000000000000 0.0
0.0000000000000000 0.0000000000000000 0.0
0.0000000000000000 0.0000000000000000 0.0
0.0000000000000000 0.0000000000000000 0.0
1.0000000000000000 0.0000000000000000 0.0
1.0000000000000000 0.0000000000000000 0.0
1.0000000000000000 0.0000000000000000 0.0
0.9108978131587736 -0.8100520502149366 0.0
0.7976287978778306 -0.8296297755945634 0.0
1.5121335854920352 -0.2582225028693210 0.0
1.4547744501504012 -0.2538662917288220 0.0
0.5840633577221636 -1.1873300552249910 0.0
0.2795838503662469 -0.2060294442892937 0.0
0.2415526234629500 -0.1983093093564545 0.0
0.5694545396706503 -1.2124250641900896 0.0
1.5743102161599936 -0.0772430932907478 0.0
1.6110625646625472 -0.1187640510563961 0.0
0.2758652812876583 -0.6967634465917754 0.0
0.2546511262374181 -0.6211184405632935 0.0
1.1541163439489681 -0.9959939997957818 0.0
0.7053643801044550 -0.1981724907358161 0.0
0.6679312895688020 -0.1852237049344384 0.0
1.1534930932990137 -0.9044355549575164 0.0
1.6001259378970705 -0.0191979630068919 0.0
1.5975281778897341 -0.0088026005228664 0.0
1.4942385124503845 -0.3560177870728292 0.0
1.5005808121923911 -0.0621710465872234 0.0
1.4392715873551432 -0.3171766894126533 0.0
0.2543368549722316 -0.8455430699187502 0.0
1.5159391871915464 -0.0682571023937636 0.0
1.5836620311960385 0.0096786186929933 0.0
1.5334930901799166 0.0359475800665494 0.0
1.2784253609934730 -0.4948959839090099 0.0
0.6851847754102182 -1.1660828638782419 0.0
1.1767270548830469 -0.4481778044827985 0.0
0.6771916013236727 -1.1758366742657480 0.0
0.0614684868827417 -0.0682786003365639 0.0
0.0510217889605121 -0.0606326604102229 0.0
1.1897828000779085 -0.0822964970167446 0.0
1.1158203462757679 -0.0918529620810383 0.0
0.1148164076699573 -0.3340631978756166 0.0
0.0833219711470244 -0.2737930841578794 0.0
0.1717798899083763 -0.7621164730960207 0.0
0.4887512549926780 -0.9631734214706942 0.0
0.4611739303978531 -0.5540527195161958 0.0
0.5286663440685621 -0.5538665226839750 0.0
1.3921427004042517 -0.0118887838575362 0.0
1.3071310242487766 -0.0808168697617619 0.0
0.8097924570830527 -0.1274850396282851 0.0
0.8757539588493103 -0.1298141125763861 0.0
0.5581559833362393 -1.0026148907560348 0.0
0.6230037555751331 -1.1113440138960946 0.0
0.3057811736306804 -0.0327092486549316 0.0
0.2854826714721599 -0.0373179795057134 0.0
1.2777021431330586 0.0119290528831479 0.0
1.2783542438517714 0.0082287400208421 0.0
0.4623978591925104 -1.0407888726206582 0.0
1.2569550420372937 0.0007227011053080 0.0
0.8731887279422577 -1.0846761629583139 0.0
0.7822179143350262 -0.4672926541379028 0.0
0.7956207278444489 -0.5068612350617134 0.0
0.0247942205510167 -0.3740556141146713 0.0
1.5017709115262554 -0.5505338464614221 0.0
0.0638011579419673 -0.4024175319794432 0.0
1.3446404413257229 0.0064909976300554 0.0
1.3449749740305568 0.0148962593044079 0.0
1.1044007845298367 -0.7527838135130900 0.0
1.3761683372627522 -0.0383858220723395 0.0
1.3736149132696640 -0.0565460772886000 0.0
0.0521278483967350 -0.1182468341684183 0.0
0.0452276098378480 -0.1023572390004778 0.0
0.7917599507406846 -0.0089629302730833 0.0
0.7756505792150462 -0.0268698090846562 0.0
1.2441317082147434 -0.5740880069597264 0.0
1.2441459529614829 -0.1016740578306460 0.0
1.4444646055314549 -0.5598488228230004 0.0
1.5350215739060347 -0.0927237994892059 0.0
1.2077577857451922 -0.0642644585224020 0.0
0.6539117430561763 -1.2300360854255570 0.0
0.9321147107335702 -0.9522042638992241 0.0
0.7994097886618159 -1.2291556267223129 0.0
1.0763080040848261 -0.0596203061033897 0.0
0.5897229041375498 -0.8836322102183686 0.0
1.0658486522446313 -0.0515426009799627 0.0
1.0676011631687197 -0.0524156184580052 0.0
1.5783068307895320 -0.0688162294182170 0.0
0.0978495520021724 -0.0389299264320680 0.0
0.0875358489634043 -0.0364792956876872 0.0
1.0380862560420854 -0.9039255127076338 0.0
0.0427419429385999 -0.2035831562982847 0.0
0.4856554040859698 -0.7379137448620767 0.0
0.2440247774558764 -0.7943378253959509 0.0
1.5645873312425120 -0.1643270423691901 0.0
1.2289892376027747 -0.2189477459190007 0.0
1.2102226382867445 -0.2003497450996812 0.0
1.1855616303428069 -0.2675863740953862 0.0
0.4189894513421672 -0.2221943755406193 0.0
0.4537098250285427 -0.2164618702568792 0.0
1.2662633498273570 -0.2939139949469473 0.0
1.0451624104155357 -0.0263740887863045 0.0
1.0431754555016088 -0.0272222202384818 0.0
0.9396800949253437 -0.1120760562472182 0.0
1.0116587296249866 -0.1169781702620448 0.0
0.2744602410163444 -0.0516253520248285 0.0
0.2640871588437332 -0.0482730566151175 0.0
0.8368484608078331 -0.0195802268936691 0.0
1.5809717131786745 -0.1532140591539502 0.0
0.0154682556823471 -0.0178668708563642 0.0
0.0121189641307036 -0.0155689367681102 0.0
1.5372557517927576 -0.0976047907596961 0.0
1.5697342697781076 -0.1279180675970903 0.0
0.1384660449952965 -0.5029626421352701 0.0
1.0960101430289364 0.2306037050048250 0.0
1.0936998050436011 0.2310575597819874 0.0
0.2806317115807127 -0.5134135582657241 0.0
0.2378726758707511 -0.4491299967098328 0.0
0.6661246005054574 -1.0276493944964307 0.0
0.9306613070052639 -0.0547616155456511 0.0
0.8801663713768643 -0.1790618176730984 0.0
0.0374205075801843 -0.1914232886324916 0.0
0.4693955315644046 -1.1097270207355268 0.0
0.2630254571805059 -0.8405827279403038 0.0
0.7848545492189428 -0.1251385352525502 0.0
1.1446457127623135 -0.7990932840199602 0.0
1.5611084395017649 -0.0506673917645609 0.0
0.5703696136777742 -1.1341095562454779 0.0
0.0289774981735728 -0.3263487563580655 0.0
1.1128366375611014 -0.6687740691482854 0.0
0.0674518486217330 -0.3029374622671845 0.0
0.8088145812153211 -1.0412495902230279 0.0
0.4074152071767145 -0.0211841007170099 0.0
0.4312858050534910 -0.0190039839249347 0.0
0.0414483842468372 -0.0988854976010974 0.0
0.0208724678040775 -0.0323094986321472 0.0
0.0168172565772399 -0.0275192889495673 0.0
1.2833673539541754 -0.7654936524545547 0.0
0.9740307628183839 -0.6421541908395795 0.0
0.5901455658469749 -1.1793602104052761 0.0
0.0287572207160674 -0.1223931011259418 0.0
0.8660139949454260 0.1645753729999476 0.0
0.8387421675360253 0.1312640924816861 0.0
0.1495087185188708 -0.1717985851360127 0.0
0.1281448027912245 -0.1549523402358268 0.0
1.6427455984846389 -0.1216656923923105 0.0
1.6027614842175184 -0.3209762877922937 0.0
0.6671659953846737 -1.2242842244490493 0.0
0.7075567604016972 -1.1377270401984145 0.0
0.1415815807531366 -0.4361135429849567 0.0
0.4202541663768045 -1.0770855292263408 0.0
0.0330853064269777 -0.0256644910022833 0.0
0.0384749847628946 -0.0284723743949876 0.0
0.4534243026416745 -1.0615630910744420 0.0
0.6507105722649376 -0.1363019381549057 0.0
0.6113858787045395 -0.1215220092364202 0.0
0.9937533744108873 -0.4332510580674285 0.0
1.3582346552174684 -0.0308016043303031 0.0
0.1586224319821464 -0.6095950524778532 0.0
1.3029176105725542 -0.0650561605872409 0.0
0.9432938423460032 -0.4071005116479893 0.0
0.5021579767469552 -0.0332325998307041 0.0
0.5279610407061063 -0.0361186028314088 0.0
0.8943017589983991 -0.0195860040085685 0.0
1.5395321867925711 -0.3464393404946173 0.0
1.4692296224930359 -0.4081224347490443 0.0
0.5885519182451007 -1.0533968001083081 0.0
1.6000797226332562 -0.0535291552120893 0.0
1.5899118080953472 -0.0449887618823147 0.0
0.2167791679918856 -0.3070899188230047 0.0
0.1851538431471681 -0.2808847427437358 0.0
0.7799058872109760 -0.1433749255589181 0.0
0.8008094589930634 -0.1598536212359633 0.0
1.5602044262901735 -0.0768616143222994 0.0
0.5610460712407106 -0.0567696130062297 0.0
0.6318093988418809 -0.0791818405720019 0.0
0.6583524120231545 -0.0806689502230914 0.0
1.2611494171430888 0.0574819808735190 0.0
1.2108934768690662 0.0466499045362994 0.0
0.6385776081762295 0.0332979000739999 0.0
0.6389378052559287 0.0303957728110096 0.0
1.4568919666139455 -0.0521425192510638 0.0
0.3120444937538006 -0.0552500056760646 0.0
0.3315613435982613 -0.0595963508862342 0.0
0.2314826770890785 -0.1155813492026930 0.0
0.2537123960655586 -0.1184213813791044 0.0
0.7325492620295683 0.0587811629485870 0.0
0.7340273591848100 0.1058301454484064 0.0
0.0412248165195006 -0.3594085725428261 0.0
1.3145871566876777 -0.7070850926323278 0.0
1.3455749099345251 -0.7362819384434510 0.0
0.6746630838392810 -0.6646822627971397 0.0
0.7731512975864370 -0.5999082229403145 0.0
1.4284036684045578 -0.4218634526192798 0.0
0.6074790129020323 0.0250219051044022 0.0
0.6296697014215604 -0.0163638968217434 0.0
0.5365920011688889 -0.1092000917750223 0.0
0.5390918289146758 -0.1068004457838111 0.0
0.6814500623126225 -1.2503663099832831 0.0
0.0958922832976979 -0.0249645065226955 0.0
0.0901546877504215 -0.0258128876003154 0.0
0.5708603329714154 -0.7253749633084315 0.0
0.6719559723841753 -0.0978355700449534 0.0
0.6705656214311501 -0.1057018823536692 0.0
1.3077938251145742 -0.1402687909955184 0.0
1.3139687695140345 -0.1133330626016470 0.0
0.4641002259407484 -0.3285196328946902 0.0
0.4016080157561406 -0.3260300977524772 0.0
0.0008269667960944 -0.1616802906047619 0.0
1.3688482105941293 -0.1446274522816366 0.0
0.6077625699732263 -0.7948958924374240 0.0
0.1166222995909683 -0.4285531178179331 0.0
0.4365196059416800 -0.7350934220073787 0.0
0.9787225466257943 -0.9632039334629287 0.0
0.8988536054551197 -1.1487684499319235 0.0
1.4970404627221408 -0.0653722911415733 0.0
1.4926142343786586 -0.0965408280331564 0.0
0.6493677826844589 -1.2239813145177350 0.0
1.0453251351666999 -0.2738984983199539 0.0
0.9933715573762970 -0.2223690381264732 0.0
0.5097369881549820 -0.1660595956102486 0.0
0.4895270396217796 -0.1713680173397291 0.0
1.5601284877478201 -0.1082446993856921 0.0
0.9895333852230151 -1.0948530185152812 0.0
0.4161018104092961 -1.0707623289768786 0.0
1.2127312111187192 -0.1680790266037636 0.0
1.5662234768858228 -0.0919725490009958 0.0
1.5756983913704949 -0.0971200756256071 0.0
1.2866275725136542 -0.1700551787327415 0.0
0.0976627959731717 -0.0110493466868730 0.0
0.1062609578697681 -0.0093508151431556 0.0
0.4208926624036894 0.0682417479588786 0.0
1.3627504922952516 -0.1374230300585955 0.0
1.3213450109378460 0.0353824428137502 0.0
0.4397003968265547 -0.9076402255411452 0.0
0.1113913764216314 -0.2321469684451040 0.0
0.0896874546703679 -0.1969023875145852 0.0
0.1529585570072612 -0.0853775737735790 0.0
0.1346207249222210 -0.0794317726956239 0.0
0.3725320290029777 -0.6550760238075171 0.0
0.0070095874556994 -0.1190012220338393 0.0
0.9125237237920313 -0.8713440989841615 0.0
0.5211501284535969 0.0366148800048155 0.0
0.5041392471503205 0.0190441428411280 0.0
1.4811163166498840 -0.0481811433914922 0.0
1.4811376421103246 -0.0598118774186838 0.0
0.9466914187285942 -1.0784815593383259 0.0
1.6023167271364398 -0.1674664332543940 0.0
0.4296037915634107 -0.0484634643871035 0.0
0.0192596723656516 -0.0413344754605355 0.0
0.0136289381067142 -0.0351285100127397 0.0
0.3741218275237821 -0.8162914539135524 0.0
0.0202894375434794 -0.1095219583318255 0.0
0.7267380803056576 -0.9399766611879274 0.0
1.4510298554435759 -0.1391624182881309 0.0
0.6445049930145424 -0.4229739310325331 0.0
0.5992754516091544 -0.4396821128337284 0.0
0.6328412701936627 -1.2077670071677979 0.0
0.6699394419574798 0.0781444692632283 0.0
0.6671668034496436 0.0808252214746004 0.0
0.7907833182381222 -1.1598146402654272 0.0
0.1281877934573110 -0.6067714068266771 0.0
0.1089669392122313 -0.4745371886414033 0.0
0.0084384070211628 -0.1151913319606888 0.0
0.8421402676613311 0.0649274100739095 0.0
0.8047842046301644 0.0968944304720952 0.0
0.8330084664007880 -0.0507596115038275 0.0
0.8045586570879112 -0.0670373295642544 0.0
0.3162326257300510 -0.8864151606172530 0.0
0.6428193370763853 -0.1495071252388906 0.0
0.7773736733965028 -1.0219175385078307 0.0
1.3657275117562673 -0.7770373396381182 0.0
0.5327150954993972 0.0847045048099870 0.0
1.4804336374803029 -0.0120160045231456 0.0
1.4842190136606874 -0.0080424243789427 0.0
1.0390986943410356 -1.0036067389492702 0.0
0.7373827337118108 -1.1801000723649184 0.0
1.3259695568510785 -0.1555007172780029 0.0
0.7113704828385936 -1.2057559909758551 0.0
0.0818713170519999 -0.3999783115987715 0.0
1.1801521584239782 -0.0548432192545723 0.0
0.3742907889629920 -0.9298615813460882 0.0
1.6539777843419508 -0.0910371668728843 0.0
0.4115334531504140 -0.0052241154656443 0.0
1.5812568144821890 -0.0861123224798351 0.0
1.5503699181509734 -0.0992862342278489 0.0
-0.0045914151814971 -0.0009836655702387 0.0
-0.0041686707093897 -0.0010976595663106 0.0
0.5346785899904770 0.0427558066120947 0.0
0.3427749103856772 -0.0443341766346708 0.0
-0.0021016316250061 -0.0059575661581307 0.0
-0.0014262032793251 -0.0067084462488698 0.0
0.5564952228943741 -0.0345772516943236 0.0
0.6363481437635395 -0.8940048324313192 0.0
0.5591337462519022 -0.0341105294453202 0.0
0.5532729675190986 -0.0270565726623767 0.0
0.6885789865096485 -0.3157419026500490 0.0
0.7385653829313155 -0.3120991580811297 0.0
0.6375579800293958 -0.7772488186184546 0.0
0.3037284430702815 -0.3924164202845908 0.0
0.3503550621619683 -0.4325643267705893 0.0
-0.0021400722278194 -0.0027379644066573 0.0
-0.0032389783329651 -0.0024442354020488 0.0
1.2867081039688999 -0.4663791736903293 0.0
1.3507697115440109 -0.6519180198905647 0.0
0.9410617145173804 -0.6232912272085503 0.0
0.7478855117612292 -0.4319645556840424 0.0
