# vtk DataFile Version 3.0
LucasCarvalhoTCC Results
ASCII

DATASET POLYDATA
FIELD FieldData 1
TIME 1 1 double
1.2000000000000002

POINTS 380 float
0.0 2.0 0.0
2.0 2.0 0.0
3.0 2.0 0.0
3.0 1.0 0.0
5.0 1.0 0.0
5.0 0.0 0.0
3.0 0.0 0.0
2.0 0.0 0.0
2.0 1.0 0.0
0.0 1.0 0.0
0.2643114543905713 2.0 0.0
0.5169795502969444 2.0 0.0
0.7585171880292413 2.0 0.0
0.9894145836600268 2.0 0.0
1.210140497826619 2.0 0.0
1.421143008568911 2.0 0.0
1.622850459538253 2.0 0.0
1.815672303789548 2.0 0.0
2.188552664328277 2.0 0.0
2.359329284173903 2.0 0.0
2.514005696104645 2.0 0.0
2.654099788331341 2.0 0.0
2.780986322989182 2.0 0.0
2.895910470953052 2.0 0.0
3.0 1.9 0.0
3.0 1.8 0.0
3.0 1.7 0.0
3.0 1.6 0.0
3.0 1.5 0.0
3.0 1.4 0.0
3.0 1.3 0.0
3.0 1.2 0.0
3.0 1.1 0.0
3.105031513416626 1.0 0.0
3.221094637894669 1.0 0.0
3.349348047908936 1.0 0.0
3.491072094154001 1.0 0.0
3.647681638607018 1.0 0.0
3.820740106959136 1.0 0.0
4.011975186625977 1.0 0.0
4.223295996958671 1.0 0.0
4.456812096249916 1.0 0.0
4.714854728122151 1.0 0.0
5.0 0.7500000000000003 0.0
5.0 0.5000000000000012 0.0
5.0 0.2500000000000011 0.0
4.735688545609428 0.0 0.0
4.483020449703056 0.0 0.0
4.241482811970759 0.0 0.0
4.010585416339973 0.0 0.0
3.789859502173381 0.0 0.0
3.578856991431089 0.0 0.0
3.377149540461747 0.0 0.0
3.184327696210452 0.0 0.0
2.811447335671723 0.0 0.0
2.640670715826097 0.0 0.0
2.485994303895355 0.0 0.0
2.345900211668659 0.0 0.0
2.219013677010818 0.0 0.0
2.104089529046948 0.0 0.0
2.0 0.1 0.0
2.0 0.2 0.0
2.0 0.3 0.0
2.0 0.4 0.0
2.0 0.5 0.0
2.0 0.6 0.0
2.0 0.7 0.0
2.0 0.8 0.0
2.0 0.9 0.0
1.894968486583374 1.0 0.0
1.77890536210533 1.0 0.0
1.650651952091063 1.0 0.0
1.508927905845999 1.0 0.0
1.352318361392982 1.0 0.0
1.179259893040864 1.0 0.0
0.9880248133740233 1.0 0.0
0.7767040030413299 1.0 0.0
0.5431879037500846 1.0 0.0
0.2851452718778493 1.0 0.0
0.0 1.25 0.0
0.0 1.499999999999999 0.0
0.0 1.749999999999999 0.0
2.426045913985508 1.348290599604586 0.0
2.562221387987337 0.6558377602558874 0.0
1.966703786708101 1.492474555319359 0.0
3.033486484223225 0.4973568340887861 0.0
2.371610747520728 0.97814425147097 0.0
2.648098402859118 1.648016516253387 0.0
2.351901597140882 0.3519834837466129 0.0
2.694321138879857 1.061432730999581 0.0
1.441644339445862 1.496646809257773 0.0
3.554831642064292 0.501744031268764 0.0
2.720742750697982 1.350625068836981 0.0
2.282037541072919 0.639419348257894 0.0
2.813390610951134 0.7911761792959446 0.0
2.310700631729327 1.679155452525512 0.0
2.688751528716965 0.3206838402855661 0.0
2.211165393176843 1.213708510063781 0.0
0.9449004170027906 1.496357611130017 0.0
4.05509958299721 0.5036423888699835 0.0
3.025501657200047 0.7528388163714679 0.0
1.714778657098197 1.300039655550584 0.0
1.958264922640818 1.245975101752485 0.0
2.206386339371814 0.8500000000000001 0.0
3.336706349465057 0.704398544338507 0.0
4.529565928894533 0.555233644424822 0.0
0.4704340711054673 1.444766355575178 0.0
2.186983355180128 1.461437746541105 0.0
2.553715879020142 0.8859594914241276 0.0
2.782212276375736 0.5474565156445963 0.0
2.500206140967324 1.148517546040804 0.0
2.803373162317882 1.783880361314082 0.0
2.196626837682118 0.2161196386859174 0.0
1.735623536927746 1.664129737658362 0.0
3.268802735993943 0.3358439745752063 0.0
2.799454045372581 1.51553500056848 0.0
2.18762015375897 0.4992029885790829 0.0
2.813478812948685 1.18678600527921 0.0
2.400994471757771 0.7612313552289275 0.0
2.405444563947088 0.5311203927463914 0.0
2.583195945356847 1.473216966241769 0.0
3.734210872783077 0.7260959952797862 0.0
1.256500988572085 1.265010492624376 0.0
2.938353069321001 0.2909212553641365 0.0
2.061245308362322 1.709221243241415 0.0
2.182240881432738 1.001025052084926 0.0
2.830214026212788 0.9796244234047695 0.0
2.49023894829247 1.787687811117195 0.0
2.50976105170753 0.2123121888828049 0.0
1.194806886820808 1.686899295332255 0.0
3.805193113179192 0.3131007046677451 0.0
2.655039231860651 1.208917360245127 0.0
1.493530449555064 1.231198576616718 0.0
2.345622594939228 1.152685186835846 0.0
2.41380980106708 1.521513100394759 0.0
2.58979513084283 0.4863225267637531 0.0
2.135472648094309 0.7246460081196311 0.0
2.912574128751924 0.660128736186259 0.0
2.866043013605144 1.353074765380587 0.0
0.6928324624395237 1.69170809873467 0.0
4.307167537560476 0.3082919012653306 0.0
2.071506740582853 1.128535871978767 0.0
0.6831902494895832 1.302725441792086 0.0
4.316809750510417 0.6972745582079137 0.0
2.85534466702333 1.667491236848871 0.0
2.141886244104996 0.336139391754002 0.0
1.447743165823209 1.773242752731258 0.0
3.554386585610856 0.224002072703283 0.0
2.96485662756902 0.8593908564801968 0.0
3.240425509636175 0.8099760775594669 0.0
2.088410584923666 1.339747073830609 0.0
3.277530767974837 0.4939020807639749 0.0
3.534313505233912 0.7935179117986669 0.0
2.546683861402325 1.011736398479819 0.0
2.664793655038503 0.758149595673951 0.0
2.7009922066801 0.9086021996324817 0.0
1.844652141496971 1.153158997353228 0.0
2.575910747861113 1.316876286520138 0.0
3.994328863599566 0.7454319923658932 0.0
1.005671136400434 1.254568007634107 0.0
1.722192091537185 1.482888323667831 0.0
2.644751416415203 1.850904811198953 0.0
2.355248583584797 0.1490951888010467 0.0
2.31560379269905 1.25706851182614 0.0
2.129697972466254 0.5864366202645266 0.0
2.417220568140766 0.6397160301847872 0.0
2.867945749403976 1.069821281672812 0.0
3.182303046124178 0.6739667261124369 0.0
4.702774994215813 0.2953677284017739 0.0
0.2972250057841874 1.704632271598226 0.0
2.90043748182062 0.4316738443013928 0.0
2.486081387366873 0.3514585853722887 0.0
2.513918612633127 1.648541414627711 0.0
2.086778258621772 1.563111332603502 0.0
4.025359850459486 0.2638518716814435 0.0
0.9746401495405139 1.736148128318556 0.0
3.116389458098145 0.2933651166122753 0.0
1.885410353788165 1.707062521230272 0.0
2.327134732627959 1.833634230002939 0.0
2.672865267372041 0.1663657699970617 0.0
1.675899428547673 1.15999616666306 0.0
1.858973331615206 1.373382723203102 0.0
2.860266039499884 1.862282581689995 0.0
2.139733960500116 0.1377174183100045 0.0
1.257473476073173 1.479081588926576 0.0
3.731624273377778 0.5208146070195914 0.0
2.115038607594509 0.9238947313642476 0.0
0.2734661728051435 1.270630989444945 0.0
4.726533827194856 0.7293690105550548 0.0
2.699965708650878 1.465007479364728 0.0
2.298365077320068 0.5341069340550768 0.0
2.510583000486659 0.7602856732279889 0.0
3.370667741214912 0.8392397884376295 0.0
3.067541604254986 0.8806352314757129 0.0
2.90073732483139 1.443475210354718 0.0
2.264071206758208 0.9501943312745662 0.0
2.278663096491763 0.7489636980394857 0.0
1.952511813454414 1.110576661474517 0.0
2.744352083917141 0.687787375233183 0.0
1.566252941493004 1.383661493752942 0.0
2.437660520624072 0.8703573012735125 0.0
2.904826075218911 1.261819176983655 0.0
2.305967018083784 1.391390767447104 0.0
2.105729326736999 0.8145314366030645 0.0
2.428967188976762 1.236966721617647 0.0
3.060475488407204 0.1442825789852263 0.0
1.934979199332455 1.852811714602595 0.0
2.095475260770118 0.4348597444661615 0.0
2.914777085426361 1.759093454264707 0.0
2.084827330449114 0.2414252069642749 0.0
2.207128288422204 1.315477221019454 0.0
2.658751426439581 0.5773232450959589 0.0
2.612380011409894 1.114144853433198 0.0
2.897371573983894 1.569769587751228 0.0
0.5001010519014215 1.226918930408543 0.0
4.499898948098578 0.7730810695914568 0.0
2.753086810589338 1.690362801865437 0.0
2.246793053318422 0.3097947118702842 0.0
3.391580469276819 0.5673489147038103 0.0
3.035026488699165 0.6179797538177514 0.0
2.449819864663089 1.055109427275025 0.0
2.27653308928065 1.054384468582349 0.0
2.794675693196835 1.418106589018447 0.0
2.778866980525137 1.083577784614141 0.0
2.244522876020972 0.1116738824400324 0.0
2.755477123979027 1.888326117559968 0.0
2.323887028942199 0.8604475039748537 0.0
2.204900210979926 1.747483509451062 0.0
2.794853185869193 0.2526222191943996 0.0
2.320767315286541 1.530441598510029 0.0
1.550828143561484 1.606851581022188 0.0
2.796593663741882 1.288013595743853 0.0
3.436143660897262 0.3940652474171653 0.0
2.682379445750112 0.4493639922429763 0.0
3.242313228541417 0.154845696987206 0.0
1.75965289115187 1.844031320058407 0.0
1.3642341383496 1.159631408929946 0.0
1.980047380836635 1.36362624976796 0.0
2.070303834520089 1.451946835577872 0.0
2.55866460451515 1.229901920133861 0.0
4.26844523535139 0.499131154814159 0.0
0.7315547646486098 1.500868845185841 0.0
2.716116351489881 1.570657861970705 0.0
2.283245236086922 0.4299499540566049 0.0
4.50573905238033 0.204273435313806 0.0
0.4942609476196695 1.795726564686194 0.0
3.605070352001925 0.644396355247622 0.0
3.171946621948212 0.9019117497969773 0.0
3.40309695214227 0.1789624633199048 0.0
1.59690304785773 1.821037536680094 0.0
4.776800700354217 0.5074282293075529 0.0
0.2231992996457826 1.492571770692447 0.0
1.293020597407515 1.839015256431498 0.0
3.706979402592485 0.1609847435685022 0.0
1.398281395597716 1.351857389185529 0.0
2.880181082677912 0.1378504756446906 0.0
2.119200639021148 1.861833157788504 0.0
2.408646939494887 0.2452196658480275 0.0
2.591353060505113 1.754780334151973 0.0
1.146570081566377 1.160946826906423 0.0
3.853429918433624 0.8390531730935771 0.0
2.920846657438631 1.149071660619678 0.0
2.101132283911678 1.226382957654413 0.0
2.903672483971366 0.7774662795474147 0.0
2.516386521935266 0.571665255016536 0.0
2.475412447847437 1.444413760085193 0.0
2.903041575637174 0.5510905120278109 0.0
3.666476299189054 0.8553176740217776 0.0
1.558137053653031 1.119389262041809 0.0
3.867595456948903 0.1475874639835382 0.0
1.132404543051097 1.852412536016462 0.0
2.635017655944937 0.9730281566682446 0.0
2.436667490139274 1.901171080200935 0.0
2.563332509860726 0.09882891979906516 0.0
2.091598337090247 1.040423151014485 0.0
0.8316881289508771 1.172977685150089 0.0
4.168311871049123 0.827022314849911 0.0
3.648565743761548 0.3681286963687066 0.0
1.355037313653319 1.636865536133179 0.0
2.58412781071005 1.576586299624529 0.0
2.41587218928995 0.4234137003754711 0.0
2.083716468691946 0.6634832154935376 0.0
1.843942294678346 1.256771801786488 0.0
[...]
POINT_DATA 380

VECTORS Velocity float
0.0000000000000000 0.0000000000000000 0.0
0.0000000000000000 0.0000000000000000 0.0
0.0000000000000000 0.0000000000000000 0.0
0.0000000000000000 0.0000000000000000 0.0
0.0000000000000000 0.0000000000000000 0.0
0.9185456601817357 -0.1323775085646135 0.0
0.0000000000000000 0.0000000000000000 0.0
0.0000000000000000 0.0000000000000000 0.0
0.0000000000000000 0.0000000000000000 0.0
0.0000000000000000 0.0000000000000000 0.0
0.0000000000000000 0.0000000000000000 0.0
0.0000000000000000 0.0000000000000000 0.0
0.0000000000000000 0.0000000000000000 0.0
0.0000000000000000 0.0000000000000000 0.0
0.0000000000000000 0.0000000000000000 0.0
0.0000000000000000 0.0000000000000000 0.0
0.0000000000000000 0.0000000000000000 0.0
0.0000000000000000 0.0000000000000000 0.0
0.0000000000000000 0.0000000000000000 0.0
0.0000000000000000 0.0000000000000000 0.0
0.0000000000000000 0.0000000000000000 0.0
0.0000000000000000 0.0000000000000000 0.0
0.0000000000000000 0.0000000000000000 0.0
0.0000000000000000 0.0000000000000000 0.0
0.0000000000000000 0.0000000000000000 0.0
0.0000000000000000 0.0000000000000000 0.0
0.0000000000000000 0.0000000000000000 0.0
0.0000000000000000 0.0000000000000000 0.0
0.0000000000000000 0.0000000000000000 0.0
0.0000000000000000 0.0000000000000000 0.0
0.0000000000000000 0.0000000000000000 0.0
0.0000000000000000 0.0000000000000000 0.0
0.0000000000000000 0.0000000000000000 0.0
0.0000000000000000 0.0000000000000000 0.0
0.0000000000000000 0.0000000000000000 0.0
0.0000000000000000 0.0000000000000000 0.0
0.0000000000000000 0.0000000000000000 0.0
0.0000000000000000 0.0000000000000000 0.0
0.0000000000000000 0.0000000000000000 0.0
0.0000000000000000 0.0000000000000000 0.0
0.0000000000000000 0.0000000000000000 0.0
0.0000000000000000 0.0000000000000000 0.0
0.0000000000000000 0.0000000000000000 0.0
1.1562339308799514 0.3583144347075768 0.0
0.7964376939419296 0.0540940453918193 0.0
1.1378514206131451 -0.3004904568687786 0.0
0.0000000000000000 0.0000000000000000 0.0
0.0000000000000000 0.0000000000000000 0.0
0.0000000000000000 0.0000000000000000 0.0
0.0000000000000000 0.0000000000000000 0.0
0.0000000000000000 0.0000000000000000 0.0
0.0000000000000000 0.0000000000000000 0.0
0.0000000000000000 0.0000000000000000 0.0
0.0000000000000000 0.0000000000000000 0.0
0.0000000000000000 0.0000000000000000 0.0
0.0000000000000000 0.0000000000000000 0.0
0.0000000000000000 0.0000000000000000 0.0
0.0000000000000000 0.0000000000000000 0.0
0.0000000000000000 0.0000000000000000 0.0
0.0000000000000000 0.0000000000000000 0.0
0.0000000000000000 0.0000000000000000 0.0
0.0000000000000000 0.0000000000000000 0.0
0.0000000000000000 0.0000000000000000 0.0
0.0000000000000000 0.0000000000000000 0.0
0.0000000000000000 0.0000000000000000 0.0
0.0000000000000000 0.0000000000000000 0.0
0.0000000000000000 0.0000000000000000 0.0
0.0000000000000000 0.0000000000000000 0.0
0.0000000000000000 0.0000000000000000 0.0
0.0000000000000000 0.0000000000000000 0.0
0.0000000000000000 0.0000000000000000 0.0
0.0000000000000000 0.0000000000000000 0.0
0.0000000000000000 0.0000000000000000 0.0
0.0000000000000000 0.0000000000000000 0.0
0.0000000000000000 0.0000000000000000 0.0
0.0000000000000000 0.0000000000000000 0.0
0.0000000000000000 0.0000000000000000 0.0
0.0000000000000000 0.0000000000000000 0.0
0.0000000000000000 0.0000000000000000 0.0
1.0000000000000000 0.0000000000000000 0.0
1.0000000000000000 0.0000000000000000 0.0
1.0000000000000000 0.0000000000000000 0.0
0.7856051194973531 -0.6592786958594086 0.0
0.7083183357461200 -0.6718111900312117 0.0
1.3870723012336048 -0.2517631119136474 0.0
1.3259951138772832 -0.2611831368621010 0.0
0.5493389546730904 -1.0492257492532149 0.0
0.3930555841411751 -0.1873845848519508 0.0
0.3611128755056235 -0.1951801628571373 0.0
0.5235384139655936 -1.0967882722698730 0.0
1.5440645512599283 -0.0841144903968485 0.0
1.5686800868872530 -0.1042576926000968 0.0
0.2842275276124108 -0.6512523345878325 0.0
0.2684248606326468 -0.6323726055512739 0.0
1.0758772075779790 -0.9822057681461646 0.0
0.7543144671033166 -0.1713422323989212 0.0
0.7386406703714273 -0.1694891049270448 0.0
1.0824903670830277 -0.8835341130561331 0.0
1.5940565781530533 -0.0121020369829915 0.0
1.5911759348761891 -0.0020296184499159 0.0
1.4922117313040690 -0.4075543631438119 0.0
1.4761555882528277 -0.1178560663024038 0.0
1.4660700895046184 -0.3710163310088576 0.0
0.2173613768245036 -0.9874198505755932 0.0
1.4858634811700759 -0.0995126043458734 0.0
1.5812081619612430 0.0114417718968678 0.0
1.5313994103466444 0.0346762418253416 0.0
1.1278395925250677 -0.4416161042972088 0.0
0.6209336081473289 -0.9349399034210926 0.0
1.0418599689233565 -0.4012343771407229 0.0
0.6117073851129985 -0.9362068011042487 0.0
0.1816201823357325 -0.0501252550710890 0.0
0.1565750878363547 -0.0577389705256448 0.0
1.1863949660668480 -0.0716340720769016 0.0
1.1525625405270812 -0.0714809692418475 0.0
0.1698573167716709 -0.3658290017181152 0.0
0.1318717425606873 -0.3347676529977266 0.0
0.1252489809622421 -0.8660806216350119 0.0
0.4609128527440550 -0.8278944301254971 0.0
0.4717623286625918 -0.4832318973800274 0.0
0.5162612031303221 -0.4588747545664693 0.0
1.3784908946339161 -0.0188264065033421 0.0
1.2982659265994874 -0.0859532875710240 0.0
0.8727974914856548 -0.1215397338928953 0.0
0.9056563754001737 -0.1142522642293881 0.0
0.5788460598473560 -1.1754038912254194 0.0
0.6102593436747601 -1.2635898836005570 0.0
0.4058591717350811 -0.0223949624960032 0.0
0.3914701448352497 -0.0278095135957142 0.0
1.2848324633962223 0.0205706905089962 0.0
1.2864555045970958 0.0203843638161542 0.0
0.4241826908980265 -0.8776666939033620 0.0
1.2590001496029553 -0.0182752595490456 0.0
0.7953671579964873 -0.9495986540699880 0.0
0.7333266838401923 -0.3867870815908660 0.0
0.7502051347291306 -0.4217623206599118 0.0
-0.0474099236382715 -0.5170908663258943 0.0
1.3751708896580837 -0.5692111579514129 0.0
0.0501462321395819 -0.4925753638591316 0.0
1.3426653418925798 0.0085232951821033 0.0
1.3426051743042251 0.0183752347249934 0.0
1.2259347235005713 -0.8921545949118176 0.0
1.3771228915076921 -0.0381162213362421 0.0
1.3753972032143724 -0.0532169628223666 0.0
0.1534083180584110 -0.1206552337229009 0.0
0.1317729863200578 -0.1251724283132186 0.0
0.8093088067203680 -0.0073072442364615 0.0
0.8063522593923688 -0.0167681163275817 0.0
1.3475904447310114 -0.6783866762017287 0.0
1.2729582646357429 -0.1279382273538802 0.0
1.3195970419188112 -0.5585833555824621 0.0
1.4727362398170023 -0.0833425552463365 0.0
1.2074995808438505 -0.0699377328874136 0.0
0.5927832205071156 -0.9828067574083397 0.0
0.8226893514591771 -0.7963344249970565 0.0
0.7363655112379623 -1.0954524316928338 0.0
1.1998354496634751 -0.0923451462283572 0.0
0.5330404493389018 -0.7064047058893476 0.0
1.0632862432968602 -0.0488725660071955 0.0
1.0656991560195055 -0.0480858812896433 0.0
1.5118210701021955 -0.0893388418247303 0.0
0.1670280917018503 -0.0408275786205062 0.0
0.1556874131946488 -0.0414816533538751 0.0
0.9170005335410167 -0.7884036646040637 0.0
0.0499531445203764 -0.2828282918365604 0.0
0.4723051033082457 -0.6262261440535799 0.0
0.1870845794411996 -0.9849219129778054 0.0
1.5055009255239078 -0.2082329939962252 0.0
1.2231910938271080 -0.2181928036428413 0.0
1.2079818849412454 -0.2000499833210932 0.0
1.1198806624990212 -0.2653471421431114 0.0
0.5179883521333460 -0.2006629283705043 0.0
0.5422932360676028 -0.1880971081053397 0.0
1.1802516752964343 -0.2747950485360302 0.0
1.0494630540836514 -0.0198340852772385 0.0
1.0467587769522781 -0.0209975654433902 0.0
0.9982968653720574 -0.0971587152192671 0.0
1.0287710047036642 -0.0971071485057088 0.0
0.3342003155894673 -0.0488381872873328 0.0
0.3295998666608754 -0.0485677207332647 0.0
0.8822608347843321 -0.0434612464346842 0.0
1.4869194967550203 -0.1888680479984088 0.0
0.1184977158896908 0.0082603396211826 0.0
0.0969950027910601 0.0012585972613291 0.0
1.5227754319867330 -0.0937804007067423 0.0
1.5495431732333838 -0.1152550690788268 0.0
0.0919925201427227 -0.6708935176641715 0.0
1.0974179693925792 0.2283303633175429 0.0
1.0985744974668263 0.2279293046084038 0.0
0.3140573906977377 -0.4732240372913021 0.0
0.2855530027722508 -0.4524877885151467 0.0
0.6059981789978414 -0.8253593335135612 0.0
0.9445331421432824 -0.0677528209794176 0.0
0.9609668907235802 -0.2163457729594757 0.0
0.0517135909560369 -0.2435517254973955 0.0
0.4558603383593517 -1.1457133877120367 0.0
0.2373885681936500 -0.8464059553534092 0.0
0.9113792428840248 -0.1466295993130722 0.0
0.9946103424135339 -0.7043319778096369 0.0
1.5242947830872584 -0.0766906345582501 0.0
0.5302614155948869 -0.9415875441810453 0.0
-0.0215518808634215 -0.4204954098730200 0.0
0.9565714671997894 -0.5695563416486785 0.0
0.0145468895251140 -0.4244160583947618 0.0
0.7136109376184812 -0.8436879645337142 0.0
0.4651663586521088 -0.0186804985589622 0.0
0.4689644113027676 -0.0147066650988117 0.0
0.0919326191105853 -0.1412549572337841 0.0
0.1225218034519943 -0.0196301196343509 0.0
0.1002126848586350 -0.0242491446754888 0.0
1.1465110722283691 -0.7173942026091183 0.0
0.8575779236196729 -0.5395852993912601 0.0
0.5411315746871600 -0.9711568113782115 0.0
0.0782378423086240 -0.1495955895053597 0.0
0.8694443374766629 0.1629997924393751 0.0
0.8450406709523210 0.1312117372060009 0.0
0.2726375445674828 -0.1598328478282927 0.0
0.2457793939380045 -0.1662416325167855 0.0
1.5754194083279309 -0.1126035277733325 0.0
1.4681697445781015 -0.3464725439962064 0.0
0.6108424644942850 -0.9950793682570374 0.0
0.6894338213239302 -1.1233286902760289 0.0
0.1682088322961948 -0.4732360027665091 0.0
0.3848177317328733 -1.1371110078779294 0.0
0.0903844975810224 -0.0297675830384591 0.0
0.1021583091220214 -0.0284688017847678 0.0
0.4287844965742956 -1.0112105739452915 0.0
0.7197049817196518 -0.1260533763105856 0.0
0.7026601304839826 -0.1231669782242918 0.0
0.9141984721512350 -0.3619679374110604 0.0
1.3469380706131024 -0.0342071594484431 0.0
0.1475457986280805 -0.6689755508651224 0.0
1.3089389816769226 -0.0446583365006208 0.0
0.8938633284597650 -0.3507458144164290 0.0
0.5494322206024388 -0.0283613433024300 0.0
0.5522817879244070 -0.0308424969751013 0.0
0.8963216458253768 -0.0286905078266403 0.0
1.4305905876909875 -0.3711213045495386 0.0
1.3194129347678218 -0.3898881765350116 0.0
0.5348259245815810 -0.8384440509754052 0.0
1.5917892140786591 -0.0468123410290373 0.0
1.5827882499646253 -0.0415596573695861 0.0
0.3036761985367338 -0.2913006440189690 0.0
0.2721297330112121 -0.2993276757617158 0.0
0.7788637864320057 -0.1398779073695805 0.0
0.8011921459636406 -0.1581405718742653 0.0
1.5259403984742697 -0.0795579832539615 0.0
0.6128366617078711 -0.0792699360030957 0.0
0.6712509827019527 -0.0729434763627374 0.0
0.6793862117480073 -0.0791405755383180 0.0
1.2600819363695932 0.0524040548333666 0.0
1.2103466214958090 0.0443396376915636 0.0
0.6539570180639708 0.0374238096981520 0.0
0.6584530534122017 0.0375799378255752 0.0
1.4410892844062677 -0.0659723754218379 0.0
0.3676728821609399 -0.0561923533827575 0.0
0.3732576558895173 -0.0563038954207495 0.0
0.3494765331350709 -0.1165070501632250 0.0
0.3686755071381220 -0.1129383017942732 0.0
0.7316076280392352 0.0588155463068621 0.0
0.7341003048465452 0.1027960339742411 0.0
-0.0472725649265969 -0.4718828838423958 0.0
1.3014600678739068 -0.7462749351247142 0.0
1.3172343044469430 -0.7985657888616792 0.0
0.6280255687790911 -0.5502516824590040 0.0
0.6884372582295689 -0.4815031433880835 0.0
1.2624513847720134 -0.4073545468239510 0.0
0.6144929615346720 0.0207015633563875 0.0
0.6529984091030060 -0.0326561763959382 0.0
0.5487329142829553 -0.1056132405656127 0.0
0.5498472413277210 -0.1038403482851949 0.0
0.6178778793800648 -1.0501895070524616 0.0
0.1371343614888414 -0.0261197270333642 0.0
0.1325837068542579 -0.0271176303903172 0.0
0.6346940171465008 -0.9254760594646670 0.0
0.6758736340438799 -0.0961899759728348 0.0
0.6744593900432674 -0.1034643937115054 0.0
1.3168925170331638 -0.1170385885378136 0.0
1.3190777073679740 -0.1063910529168956 0.0
0.5157465402967122 -0.2887290059526372 0.0
0.4694348178551143 -0.2978326336188444 0.0
-0.0492064781444252 -0.2443496789697268 0.0
1.3782166776768729 -0.2007384619387224 0.0
0.6527418719051928 -1.0135172080503621 0.0
0.1439610266086149 -0.4895999848791902 0.0
0.4236420875333147 -0.6125138384082687 0.0
1.0222528600708241 -1.0747723130691589 0.0
0.8603295089395386 -1.1559041738961853 0.0
1.4844674137962020 -0.0606970254137491 0.0
1.4829753137562456 -0.0899501275725297 0.0
0.6093791951142112 -1.1736402068413856 0.0
1.0065052208348890 -0.2362613658667285 0.0
0.9752494777250936 -0.2051593121669376 0.0
0.6060025351287605 -0.1456160438947279 0.0
0.5964816657690974 -0.1545558702447018 0.0
1.5227997477378317 -0.1098776760930946 0.0
0.8921197375210285 -0.9800776562495668 0.0
0.3766961626428022 -1.0007363269800225 0.0
1.1971228731139893 -0.1665660913741087 0.0
1.5608961513063080 -0.0807885929326549 0.0
1.5699432891637957 -0.0851903510665864 0.0
1.2365753096658698 -0.1548017748564053 0.0
0.1533756142601063 -0.0052340358947555 0.0
0.1610580401420909 -0.0029193694532749 0.0
0.4573877864083433 0.0644434595450346 0.0
1.3233910134306379 -0.1282348969933975 0.0
1.3363591945644064 -0.0072479474021593 0.0
0.4114444238723962 -0.7606741788170078 0.0
0.2069802393019378 -0.2401630572393726 0.0
0.1771537012234820 -0.2334456132225807 0.0
0.2769644253831399 -0.0681752681699802 0.0
0.2538694954247964 -0.0743642331080598 0.0
0.3812734267311804 -0.5919372259319028 0.0
-0.0635123771771999 -0.1794229290500322 0.0
0.7948533212832719 -0.7203030218569639 0.0
0.5259685589923440 0.0362194244078730 0.0
0.5100159804416350 0.0198639371846709 0.0
1.4776259494586996 -0.0435779730391810 0.0
1.4767978215083393 -0.0541373174150009 0.0
0.8834774303566110 -1.0515445530886247 0.0
1.4727797525264867 -0.1935253251333821 0.0
0.4500224768010415 -0.0553616402204775 0.0
0.1033260235289482 -0.0525866140175531 0.0
0.0809626360447245 -0.0523841072591535 0.0
0.3584876482805470 -0.7426366376333264 0.0
0.0420334951982038 -0.1662303218778416 0.0
0.6437217906482617 -0.7417710235845462 0.0
1.3784142315569232 -0.1279270016467665 0.0
0.6405341686622058 -0.3511080470766435 0.0
0.6089803045028767 -0.3785885615092502 0.0
0.5776842461764524 -0.9787803285140027 0.0
0.6737876394042680 0.0794048160803106 0.0
0.6717247540640906 0.0821203903696660 0.0
0.7095554414483694 -0.9605126626697519 0.0
0.0904246091840229 -0.7449462549975068 0.0
0.0984605607569113 -0.5739537451153800 0.0
-0.0169885503337339 -0.1588159502196030 0.0
0.8432525822155397 0.0642068060727338 0.0
0.8075492315911967 0.0942483891042895 0.0
0.8330666981900016 -0.0513732991600839 0.0
0.8037924540919431 -0.0694138437100304 0.0
0.2923667845924245 -0.8479390728564988 0.0
0.7579735353903149 -0.1838498999451009 0.0
0.6952244103057378 -0.8269966111876327 0.0
1.2473478174441992 -0.7507792123867237 0.0
0.5929449151668938 0.0779932841470392 0.0
1.4772530486173194 -0.0094140364929311 0.0
1.4812592344851847 -0.0050639708384083 0.0
1.0706222742539702 -1.1357218916457374 0.0
0.6642233835561019 -0.9712431668387572 0.0
1.3788246028136013 -0.2065046675473035 0.0
0.6535255665972721 -1.0534930719540030 0.0
-0.0321143735809421 -0.5626636872852905 0.0
1.2451788699922093 -0.1113181011523882 0.0
0.3615629403141731 -1.1067485280379261 0.0
1.5529222377641607 -0.1183932110739013 0.0
0.4242726136516949 -0.0076892389299133 0.0
1.5728439492303303 -0.0803524765703966 0.0
1.5448115961888402 -0.0966095568175319 0.0
0.0464217660167538 0.0114797322655905 0.0
0.0614110857661694 0.0150793303980040 0.0
0.5473879840488020 0.0402987988035036 0.0
0.4013131719135318 -0.0674335475352769 0.0
0.0282291013627856 -0.0005034036586788 0.0
0.0372070610681790 0.0019325567223227 0.0
0.5579452721306111 -0.0372769755725993 0.0
0.5849275836531782 -0.7287793868970645 0.0
0.5618585001085558 -0.0333634214274665 0.0
0.5562236375934203 -0.0258294598936852 0.0
0.7227043849725895 -0.2690089842094987 0.0
0.7545959323354716 -0.2532101987038679 0.0
0.5723207033549103 -0.6179024241351829 0.0
0.3698818183312381 -0.3686907878534411 0.0
0.4077118505485985 -0.3779357951364268 0.0
0.1006437019051478 0.0191396794143356 0.0
0.0778266034915796 0.0142976932034191 0.0
1.4400145113237530 -0.5484950200470845 0.0
1.1790486616321678 -0.6011795740603122 0.0
0.8212699792632736 -0.5092739163180082 0.0
0.8847069021295427 -0.5271819289817491 0.0
