# vtk DataFile Version 3.0
LucasCarvalhoTCC Results
ASCII

DATASET POLYDATA
FIELD FieldData 1
TIME 1 1 double
1.8

POINTS 380 float
0.0 2.0 0.0
2.0 2.0 0.0
3.0 2.0 0.0
3.0 1.0 0.0
5.0 1.0 0.0
5.0 0.0 0.0
3.0 0.0 0.0
2.0 0.0 0.0
2.0 1.0 0.0
0.0 1.0 0.0
0.2643114543905713 2.0 0.0
0.5169795502969444 2.0 0.0
0.7585171880292413 2.0 0.0
0.9894145836600268 2.0 0.0
1.210140497826619 2.0 0.0
1.421143008568911 2.0 0.0
1.622850459538253 2.0 0.0
1.815672303789548 2.0 0.0
2.188552664328277 2.0 0.0
2.359329284173903 2.0 0.0
2.514005696104645 2.0 0.0
2.654099788331341 2.0 0.0
2.780986322989182 2.0 0.0
2.895910470953052 2.0 0.0
3.0 1.9 0.0
3.0 1.8 0.0
3.0 1.7 0.0
3.0 1.6 0.0
3.0 1.5 0.0
3.0 1.4 0.0
3.0 1.3 0.0
3.0 1.2 0.0
3.0 1.1 0.0
3.105031513416626 1.0 0.0
3.221094637894669 1.0 0.0
3.349348047908936 1.0 0.0
3.491072094154001 1.0 0.0
3.647681638607018 1.0 0.0
3.820740106959136 1.0 0.0
4.011975186625977 1.0 0.0
4.223295996958671 1.0 0.0
4.456812096249916 1.0 0.0
4.714854728122151 1.0 0.0
5.0 0.7500000000000003 0.0
5.0 0.5000000000000012 0.0
5.0 0.2500000000000011 0.0
4.735688545609428 0.0 0.0
4.483020449703056 0.0 0.0
4.241482811970759 0.0 0.0
4.010585416339973 0.0 0.0
3.789859502173381 0.0 0.0
3.578856991431089 0.0 0.0
3.377149540461747 0.0 0.0
3.184327696210452 0.0 0.0
2.811447335671723 0.0 0.0
2.640670715826097 0.0 0.0
2.485994303895355 0.0 0.0
2.345900211668659 0.0 0.0
2.219013677010818 0.0 0.0
2.104089529046948 0.0 0.0
2.0 0.1 0.0
2.0 0.2 0.0
2.0 0.3 0.0
2.0 0.4 0.0
2.0 0.5 0.0
2.0 0.6 0.0
2.0 0.7 0.0
2.0 0.8 0.0
2.0 0.9 0.0
1.894968486583374 1.0 0.0
1.77890536210533 1.0 0.0
1.650651952091063 1.0 0.0
1.508927905845999 1.0 0.0
1.352318361392982 1.0 0.0
1.179259893040864 1.0 0.0
0.9880248133740233 1.0 0.0
0.7767040030413299 1.0 0.0
0.5431879037500846 1.0 0.0
0.2851452718778493 1.0 0.0
0.0 1.25 0.0
0.0 1.499999999999999 0.0
0.0 1.749999999999999 0.0
2.426045913985508 1.348290599604586 0.0
2.562221387987337 0.6558377602558874 0.0
1.966703786708101 1.492474555319359 0.0
3.033486484223225 0.4973568340887861 0.0
2.371610747520728 0.97814425147097 0.0
2.648098402859118 1.648016516253387 0.0
2.351901597140882 0.3519834837466129 0.0
2.694321138879857 1.061432730999581 0.0
1.441644339445862 1.496646809257773 0.0
3.554831642064292 0.501744031268764 0.0
2.720742750697982 1.350625068836981 0.0
2.282037541072919 0.639419348257894 0.0
2.813390610951134 0.7911761792959446 0.0
2.310700631729327 1.679155452525512 0.0
2.688751528716965 0.3206838402855661 0.0
2.211165393176843 1.213708510063781 0.0
0.9449004170027906 1.496357611130017 0.0
4.05509958299721 0.5036423888699835 0.0
3.025501657200047 0.7528388163714679 0.0
1.714778657098197 1.300039655550584 0.0
1.958264922640818 1.245975101752485 0.0
2.206386339371814 0.8500000000000001 0.0
3.336706349465057 0.704398544338507 0.0
4.529565928894533 0.555233644424822 0.0
0.4704340711054673 1.444766355575178 0.0
2.186983355180128 1.461437746541105 0.0
2.553715879020142 0.8859594914241276 0.0
2.782212276375736 0.5474565156445963 0.0
2.500206140967324 1.148517546040804 0.0
2.803373162317882 1.783880361314082 0.0
2.196626837682118 0.2161196386859174 0.0
1.735623536927746 1.664129737658362 0.0
3.268802735993943 0.3358439745752063 0.0
2.799454045372581 1.51553500056848 0.0
2.18762015375897 0.4992029885790829 0.0
2.813478812948685 1.18678600527921 0.0
2.400994471757771 0.7612313552289275 0.0
2.405444563947088 0.5311203927463914 0.0
2.583195945356847 1.473216966241769 0.0
3.734210872783077 0.7260959952797862 0.0
1.256500988572085 1.265010492624376 0.0
2.938353069321001 0.2909212553641365 0.0
2.061245308362322 1.709221243241415 0.0
2.182240881432738 1.001025052084926 0.0
2.830214026212788 0.9796244234047695 0.0
2.49023894829247 1.787687811117195 0.0
2.50976105170753 0.2123121888828049 0.0
1.194806886820808 1.686899295332255 0.0
3.805193113179192 0.3131007046677451 0.0
2.655039231860651 1.208917360245127 0.0
1.493530449555064 1.231198576616718 0.0
2.345622594939228 1.152685186835846 0.0
2.41380980106708 1.521513100394759 0.0
2.58979513084283 0.4863225267637531 0.0
2.135472648094309 0.7246460081196311 0.0
2.912574128751924 0.660128736186259 0.0
2.866043013605144 1.353074765380587 0.0
0.6928324624395237 1.69170809873467 0.0
4.307167537560476 0.3082919012653306 0.0
2.071506740582853 1.128535871978767 0.0
0.6831902494895832 1.302725441792086 0.0
4.316809750510417 0.6972745582079137 0.0
2.85534466702333 1.667491236848871 0.0
2.141886244104996 0.336139391754002 0.0
1.447743165823209 1.773242752731258 0.0
3.554386585610856 0.224002072703283 0.0
2.96485662756902 0.8593908564801968 0.0
3.240425509636175 0.8099760775594669 0.0
2.088410584923666 1.339747073830609 0.0
3.277530767974837 0.4939020807639749 0.0
3.534313505233912 0.7935179117986669 0.0
2.546683861402325 1.011736398479819 0.0
2.664793655038503 0.758149595673951 0.0
2.7009922066801 0.9086021996324817 0.0
1.844652141496971 1.153158997353228 0.0
2.575910747861113 1.316876286520138 0.0
3.994328863599566 0.7454319923658932 0.0
1.005671136400434 1.254568007634107 0.0
1.722192091537185 1.482888323667831 0.0
2.644751416415203 1.850904811198953 0.0
2.355248583584797 0.1490951888010467 0.0
2.31560379269905 1.25706851182614 0.0
2.129697972466254 0.5864366202645266 0.0
2.417220568140766 0.6397160301847872 0.0
2.867945749403976 1.069821281672812 0.0
3.182303046124178 0.6739667261124369 0.0
4.702774994215813 0.2953677284017739 0.0
0.2972250057841874 1.704632271598226 0.0
2.90043748182062 0.4316738443013928 0.0
2.486081387366873 0.3514585853722887 0.0
2.513918612633127 1.648541414627711 0.0
2.086778258621772 1.563111332603502 0.0
4.025359850459486 0.2638518716814435 0.0
0.9746401495405139 1.736148128318556 0.0
3.116389458098145 0.2933651166122753 0.0
1.885410353788165 1.707062521230272 0.0
2.327134732627959 1.833634230002939 0.0
2.672865267372041 0.1663657699970617 0.0
1.675899428547673 1.15999616666306 0.0
1.858973331615206 1.373382723203102 0.0
2.860266039499884 1.862282581689995 0.0
2.139733960500116 0.1377174183100045 0.0
1.257473476073173 1.479081588926576 0.0
3.731624273377778 0.5208146070195914 0.0
2.115038607594509 0.9238947313642476 0.0
0.2734661728051435 1.270630989444945 0.0
4.726533827194856 0.7293690105550548 0.0
2.699965708650878 1.465007479364728 0.0
2.298365077320068 0.5341069340550768 0.0
2.510583000486659 0.7602856732279889 0.0
3.370667741214912 0.8392397884376295 0.0
3.067541604254986 0.8806352314757129 0.0
2.90073732483139 1.443475210354718 0.0
2.264071206758208 0.9501943312745662 0.0
2.278663096491763 0.7489636980394857 0.0
1.952511813454414 1.110576661474517 0.0
2.744352083917141 0.687787375233183 0.0
1.566252941493004 1.383661493752942 0.0
2.437660520624072 0.8703573012735125 0.0
2.904826075218911 1.261819176983655 0.0
2.305967018083784 1.391390767447104 0.0
2.105729326736999 0.8145314366030645 0.0
2.428967188976762 1.236966721617647 0.0
3.060475488407204 0.1442825789852263 0.0
1.934979199332455 1.852811714602595 0.0
2.095475260770118 0.4348597444661615 0.0
2.914777085426361 1.759093454264707 0.0
2.084827330449114 0.2414252069642749 0.0
2.207128288422204 1.315477221019454 0.0
2.658751426439581 0.5773232450959589 0.0
2.612380011409894 1.114144853433198 0.0
2.897371573983894 1.569769587751228 0.0
0.5001010519014215 1.226918930408543 0.0
4.499898948098578 0.7730810695914568 0.0
2.753086810589338 1.690362801865437 0.0
2.246793053318422 0.3097947118702842 0.0
3.391580469276819 0.5673489147038103 0.0
3.035026488699165 0.6179797538177514 0.0
2.449819864663089 1.055109427275025 0.0
2.27653308928065 1.054384468582349 0.0
2.794675693196835 1.418106589018447 0.0
2.778866980525137 1.083577784614141 0.0
2.244522876020972 0.1116738824400324 0.0
2.755477123979027 1.888326117559968 0.0
2.323887028942199 0.8604475039748537 0.0
2.204900210979926 1.747483509451062 0.0
2.794853185869193 0.2526222191943996 0.0
2.320767315286541 1.530441598510029 0.0
1.550828143561484 1.606851581022188 0.0
2.796593663741882 1.288013595743853 0.0
3.436143660897262 0.3940652474171653 0.0
2.682379445750112 0.4493639922429763 0.0
3.242313228541417 0.154845696987206 0.0
1.75965289115187 1.844031320058407 0.0
1.3642341383496 1.159631408929946 0.0
1.980047380836635 1.36362624976796 0.0
2.070303834520089 1.451946835577872 0.0
2.55866460451515 1.229901920133861 0.0
4.26844523535139 0.499131154814159 0.0
0.7315547646486098 1.500868845185841 0.0
2.716116351489881 1.570657861970705 0.0
2.283245236086922 0.4299499540566049 0.0
4.50573905238033 0.204273435313806 0.0
0.4942609476196695 1.795726564686194 0.0
3.605070352001925 0.644396355247622 0.0
3.171946621948212 0.9019117497969773 0.0
3.40309695214227 0.1789624633199048 0.0
1.59690304785773 1.821037536680094 0.0
4.776800700354217 0.5074282293075529 0.0
0.2231992996457826 1.492571770692447 0.0
1.293020597407515 1.839015256431498 0.0
3.706979402592485 0.1609847435685022 0.0
1.398281395597716 1.351857389185529 0.0
2.880181082677912 0.1378504756446906 0.0
2.119200639021148 1.861833157788504 0.0
2.408646939494887 0.2452196658480275 0.0
2.591353060505113 1.754780334151973 0.0
1.146570081566377 1.160946826906423 0.0
3.853429918433624 0.8390531730935771 0.0
2.920846657438631 1.149071660619678 0.0
2.101132283911678 1.226382957654413 0.0
2.903672483971366 0.7774662795474147 0.0
2.516386521935266 0.571665255016536 0.0
2.475412447847437 1.444413760085193 0.0
2.903041575637174 0.5510905120278109 0.0
3.666476299189054 0.8553176740217776 0.0
1.558137053653031 1.119389262041809 0.0
3.867595456948903 0.1475874639835382 0.0
1.132404543051097 1.852412536016462 0.0
2.635017655944937 0.9730281566682446 0.0
2.436667490139274 1.901171080200935 0.0
2.563332509860726 0.09882891979906516 0.0
2.091598337090247 1.040423151014485 0.0
0.8316881289508771 1.172977685150089 0.0
4.168311871049123 0.827022314849911 0.0
3.648565743761548 0.3681286963687066 0.0
1.355037313653319 1.636865536133179 0.0
2.58412781071005 1.576586299624529 0.0
2.41587218928995 0.4234137003754711 0.0
2.083716468691946 0.6634832154935376 0.0
1.843942294678346 1.256771801786488 0.0
[...]
POINT_DATA 380

VECTORS Velocity float
0.0000000000000000 0.0000000000000000 0.0
0.0000000000000000 0.0000000000000000 0.0
0.0000000000000000 0.0000000000000000 0.0
0.0000000000000000 0.0000000000000000 0.0
0.0000000000000000 0.0000000000000000 0.0
0.9186735146583598 -0.1329087897656626 0.0
0.0000000000000000 0.0000000000000000 0.0
0.0000000000000000 0.0000000000000000 0.0
0.0000000000000000 0.0000000000000000 0.0
0.0000000000000000 0.0000000000000000 0.0
0.0000000000000000 0.0000000000000000 0.0
0.0000000000000000 0.0000000000000000 0.0
0.0000000000000000 0.0000000000000000 0.0
0.0000000000000000 0.0000000000000000 0.0
0.0000000000000000 0.0000000000000000 0.0
0.0000000000000000 0.0000000000000000 0.0
0.0000000000000000 0.0000000000000000 0.0
0.0000000000000000 0.0000000000000000 0.0
0.0000000000000000 0.0000000000000000 0.0
0.0000000000000000 0.0000000000000000 0.0
0.0000000000000000 0.0000000000000000 0.0
0.0000000000000000 0.0000000000000000 0.0
0.0000000000000000 0.0000000000000000 0.0
0.0000000000000000 0.0000000000000000 0.0
0.0000000000000000 0.0000000000000000 0.0
0.0000000000000000 0.0000000000000000 0.0
0.0000000000000000 0.0000000000000000 0.0
0.0000000000000000 0.0000000000000000 0.0
0.0000000000000000 0.0000000000000000 0.0
0.0000000000000000 0.0000000000000000 0.0
0.0000000000000000 0.0000000000000000 0.0
0.0000000000000000 0.0000000000000000 0.0
0.0000000000000000 0.0000000000000000 0.0
0.0000000000000000 0.0000000000000000 0.0
0.0000000000000000 0.0000000000000000 0.0
0.0000000000000000 0.0000000000000000 0.0
0.0000000000000000 0.0000000000000000 0.0
0.0000000000000000 0.0000000000000000 0.0
0.0000000000000000 0.0000000000000000 0.0
0.0000000000000000 0.0000000000000000 0.0
0.0000000000000000 0.0000000000000000 0.0
0.0000000000000000 0.0000000000000000 0.0
0.0000000000000000 0.0000000000000000 0.0
1.1555518354197774 0.3625570572692261 0.0
0.7958059120421370 0.0605884387572182 0.0
1.1391727507950129 -0.2980179047857155 0.0
0.0000000000000000 0.0000000000000000 0.0
0.0000000000000000 0.0000000000000000 0.0
0.0000000000000000 0.0000000000000000 0.0
0.0000000000000000 0.0000000000000000 0.0
0.0000000000000000 0.0000000000000000 0.0
0.0000000000000000 0.0000000000000000 0.0
0.0000000000000000 0.0000000000000000 0.0
0.0000000000000000 0.0000000000000000 0.0
0.0000000000000000 0.0000000000000000 0.0
0.0000000000000000 0.0000000000000000 0.0
0.0000000000000000 0.0000000000000000 0.0
0.0000000000000000 0.0000000000000000 0.0
0.0000000000000000 0.0000000000000000 0.0
0.0000000000000000 0.0000000000000000 0.0
0.0000000000000000 0.0000000000000000 0.0
0.0000000000000000 0.0000000000000000 0.0
0.0000000000000000 0.0000000000000000 0.0
0.0000000000000000 0.0000000000000000 0.0
0.0000000000000000 0.0000000000000000 0.0
0.0000000000000000 0.0000000000000000 0.0
0.0000000000000000 0.0000000000000000 0.0
0.0000000000000000 0.0000000000000000 0.0
0.0000000000000000 0.0000000000000000 0.0
0.0000000000000000 0.0000000000000000 0.0
0.0000000000000000 0.0000000000000000 0.0
0.0000000000000000 0.0000000000000000 0.0
0.0000000000000000 0.0000000000000000 0.0
0.0000000000000000 0.0000000000000000 0.0
0.0000000000000000 0.0000000000000000 0.0
0.0000000000000000 0.0000000000000000 0.0
0.0000000000000000 0.0000000000000000 0.0
0.0000000000000000 0.0000000000000000 0.0
0.0000000000000000 0.0000000000000000 0.0
1.0000000000000000 0.0000000000000000 0.0
1.0000000000000000 0.0000000000000000 0.0
1.0000000000000000 0.0000000000000000 0.0
0.8358345202980960 -0.7148004334609145 0.0
0.7438191298150759 -0.7249692093377584 0.0
1.4562771296746901 -0.2572825730957199 0.0
1.3959946980791889 -0.2598916210103721 0.0
0.5656811022399008 -1.1159420439763528 0.0
0.3488087531875397 -0.1971976206128930 0.0
0.3149312485786945 -0.2003267952769337 0.0
0.5455278614905469 -1.1574493320881813 0.0
1.5666061606475403 -0.0820790354457499 0.0
1.5993168324075053 -0.1115852671039188 0.0
0.2803717241646599 -0.6896713580455492 0.0
0.2613238530902654 -0.6503964703948315 0.0
1.1103109326977731 -1.0021731098123261 0.0
0.7285149300174384 -0.1781070255099599 0.0
0.7067136316905052 -0.1715621219363717 0.0
1.1173333361840501 -0.9051449679646816 0.0
1.5994030867380362 -0.0157017978014492 0.0
1.5968087895617806 -0.0053968952832107 0.0
1.4931501395794502 -0.3885425631099204 0.0
1.4945379369591811 -0.0907345590793871 0.0
1.4563576049240181 -0.3511982825271455 0.0
0.2363321018562895 -0.9400759932964654 0.0
1.5025370063950167 -0.0829359217327278 0.0
1.5837722443162476 0.0099297012046668 0.0
1.5334406681047337 0.0354556265741799 0.0
1.1999252011445309 -0.4660685688097781 0.0
0.6445592769077254 -1.0178467450363988 0.0
1.1045420362158036 -0.4180192670363007 0.0
0.6379172910848812 -1.0230359171333241 0.0
0.1223766453948965 -0.0638926614569973 0.0
0.1037517540912649 -0.0656359201050478 0.0
1.1850501334317844 -0.0793068577352130 0.0
1.1329726236391731 -0.0812804389744841 0.0
0.1476450128340092 -0.3714505142566909 0.0
0.1121934965420277 -0.3262018932112434 0.0
0.1503147498341807 -0.8389379615325907 0.0
0.4697595262888862 -0.8930171675966777 0.0
0.4752689916347188 -0.5165197932846246 0.0
0.5266653331438332 -0.4968021046411479 0.0
1.3858699234681000 -0.0118470760134759 0.0
1.3030826573126433 -0.0817682883924038 0.0
0.8391302798805838 -0.1225252422766707 0.0
0.8841364297383052 -0.1195271943134303 0.0
0.5753833208202632 -1.1078843437548365 0.0
0.6200353912013591 -1.2064014380066426 0.0
0.3591199231397698 -0.0262463452344967 0.0
0.3443474091284693 -0.0312470562772592 0.0
1.2814071182736260 0.0150137796791654 0.0
1.2825010718095706 0.0134092625874533 0.0
0.4413747719766267 -0.9526648046724518 0.0
1.2571943557961534 -0.0086436240145170 0.0
0.8292842576222694 -1.0123310756532045 0.0
0.7574076767712997 -0.4114075652283605 0.0
0.7763626962643907 -0.4482495360132494 0.0
-0.0122223764782508 -0.4636699627401771 0.0
1.4394251163310319 -0.5696980183601026 0.0
0.0553717836907021 -0.4711957757117079 0.0
1.3439784623163666 0.0069327293497768 0.0
1.3438557292118702 0.0158962709308276 0.0
1.1691322976788643 -0.8346894016902716 0.0
1.3767082453540194 -0.0382426511362737 0.0
1.3747312162756626 -0.0554593414010043 0.0
0.1046281847254021 -0.1289837550056660 0.0
0.0897321857230191 -0.1245868061465422 0.0
0.7970105655335055 -0.0088819030839767 0.0
0.7878032504141749 -0.0218379546997665 0.0
1.2940457239559684 -0.6341550541564125 0.0
1.2524282902407100 -0.1155313289457233 0.0
1.3843282279490841 -0.5686709482241001 0.0
1.5125984180816663 -0.0874335481289668 0.0
1.2025726851768848 -0.0650301322843780 0.0
0.6166599966614722 -1.0725047110707000 0.0
0.8640452275846338 -0.8576127667380443 0.0
0.7648737866593709 -1.1600902031913825 0.0
1.1343114229345446 -0.0779423738147869 0.0
0.5545348426848917 -0.7749682545139313 0.0
1.0647447931842025 -0.0500007555178054 0.0
1.0664712084689958 -0.0502863362967819 0.0
1.5537264401687119 -0.0817542342684753 0.0
0.1339103382823631 -0.0406713516446878 0.0
0.1240182304673481 -0.0402355675991421 0.0
0.9683631824662345 -0.8415945975572765 0.0
0.0460344672875800 -0.2594906938742765 0.0
0.4796478835580957 -0.6758339129341050 0.0
0.2204804438148507 -0.9073545477390265 0.0
1.5382709868552906 -0.1885577440591598 0.0
1.2274285764666695 -0.2192703163518213 0.0
1.2098142962872003 -0.2005916722541200 0.0
1.1527468897006041 -0.2654483073146149 0.0
0.4805331857199748 -0.2084465077190408 0.0
0.5066353097339147 -0.1975580716186042 0.0
1.2219547658808958 -0.2832216331128014 0.0
1.0465545437456361 -0.0236946039141836 0.0
1.0446044407294302 -0.0245965248103984 0.0
0.9664974734992958 -0.1041475712674210 0.0
1.0135215788853700 -0.1071879598322665 0.0
0.3033170236539914 -0.0487381588512917 0.0
0.2979874780689498 -0.0473329880624832 0.0
0.8560545461505200 -0.0310653120799461 0.0
1.5435984137489787 -0.1736154957041945 0.0
0.0639688762409312 -0.0070577305517624 0.0
0.0504042870925462 -0.0101756729274645 0.0
1.5345755960346450 -0.0963796952597944 0.0
1.5652043224039138 -0.1211123904120925 0.0
0.1210550359493951 -0.5953442481001372 0.0
1.0963389495206741 0.2301532830262244 0.0
1.0952152680067389 0.2302439306296606 0.0
0.3034621486381262 -0.5043457072843437 0.0
0.2696476652923204 -0.4691505230058242 0.0
0.6273511321615793 -0.8993650088101114 0.0
0.9310113266388703 -0.0609756596874356 0.0
0.9152623242375484 -0.1996464892744606 0.0
0.0438680875616540 -0.2327067489555981 0.0
0.4662804823708345 -1.1472968595743205 0.0
0.2468736693607561 -0.8662665531253233 0.0
0.8461251560138887 -0.1382247250781630 0.0
1.0585762960925440 -0.7472872410284348 0.0
1.5501307156455502 -0.0652323783036416 0.0
0.5452580437405471 -1.0207179642143012 0.0
0.0049960848384515 -0.3887426715074753 0.0
1.0250272942186207 -0.6100170726742025 0.0
0.0437895495146066 -0.3732467224380995 0.0
0.7514042387967631 -0.9194316786400032 0.0
0.4336464140353093 -0.0196087889209819 0.0
0.4443380511698230 -0.0163128233483593 0.0
0.0697293602938327 -0.1306655576835241 0.0
0.0700946081595253 -0.0292342381387859 0.0
0.0558782427852835 -0.0297028445719275 0.0
1.2111390306439660 -0.7479852061423132 0.0
0.9086564709884477 -0.5731712239619001 0.0
0.5629937422491063 -1.0551861320542768 0.0
0.0541392948710600 -0.1472045148124110 0.0
0.8667262309080856 0.1643474270371172 0.0
0.8405189443284070 0.1314733458777015 0.0
0.2191844815033666 -0.1737548346256848 0.0
0.1945688649412552 -0.1717554661522009 0.0
1.6197119714671464 -0.1173433425300485 0.0
1.5412137722381123 -0.3398252150182035 0.0
0.6342757043110517 -1.0825903173559714 0.0
0.7017647411088416 -1.1437059500207907 0.0
0.1560412765622115 -0.4794566461142987 0.0
0.4055150233977511 -1.1284214554333836 0.0
0.0613695031118038 -0.0296381166230544 0.0
0.0699574539210753 -0.0297388519140890 0.0
0.4399713227900508 -1.0502641385993394 0.0
0.6804565637226518 -0.1275318819539749 0.0
0.6570040506166182 -0.1195539278184842 0.0
0.9499383100583866 -0.3868577153469265 0.0
1.3543554551422585 -0.0346564371303708 0.0
0.1519394079321221 -0.6655709419061133 0.0
1.3080616281597828 -0.0549051608764487 0.0
0.9194879048180213 -0.3680117023821785 0.0
0.5227204702984293 -0.0304579710334825 0.0
0.5344436195176510 -0.0336616165309218 0.0
0.8927138505213942 -0.0232530061158270 0.0
1.4918930175474030 -0.3648198219886214 0.0
1.3982916460119736 -0.4021304555735228 0.0
0.5569276474741491 -0.9191639962931369 0.0
1.5992066165804697 -0.0513722313144149 0.0
1.5892588386285929 -0.0438965099660889 0.0
0.2721562300136483 -0.3096803653617992 0.0
0.2404857169640911 -0.3060066361183615 0.0
0.7787613769651834 -0.1426993103454438 0.0
0.8004578758874020 -0.1597518049649087 0.0
1.5486427861637704 -0.0751334212364369 0.0
0.5800529048617155 -0.0680855449324497 0.0
0.6480699483058733 -0.0757413693193377 0.0
0.6641355697625182 -0.0806480473806011 0.0
1.2610258828083318 0.0559130511021997 0.0
1.2108329078449303 0.0461279374236076 0.0
0.6434558648506612 0.0346188650137032 0.0
0.6457301441831905 0.0336831728455630 0.0
1.4524797596268411 -0.0587281428582061 0.0
0.3381160955107987 -0.0548753493376240 0.0
0.3481765282214288 -0.0566971260130256 0.0
0.2981056753362347 -0.1168327422484312 0.0
0.3168876134533686 -0.1153957297280100 0.0
0.7304600652590291 0.0594839813991623 0.0
0.7324649682306253 0.1056343295329037 0.0
0.0020365129863676 -0.4270843130630042 0.0
1.3105352370572363 -0.7392674186068693 0.0
1.3311064699963744 -0.7813474081045921 0.0
0.6529470195294799 -0.5911415506705208 0.0
0.7251466369164123 -0.5206672191323285 0.0
1.3463495110686197 -0.4179158329166960 0.0
0.6066091483625734 0.0243940651041525 0.0
0.6374256286822878 -0.0239538592699961 0.0
0.5399641717905777 -0.1077306783489459 0.0
0.5422218098788282 -0.1057008784629256 0.0
0.6442537161537291 -1.1310763690788417 0.0
0.1169177650720472 -0.0249787138261729 0.0
0.1126041973455975 -0.0259865757896623 0.0
0.6077721119798549 -0.8336772653029636 0.0
0.6723619053006937 -0.0970969843984795 0.0
0.6711392913979801 -0.1048310665099078 0.0
1.3134594084441149 -0.1300176204209409 0.0
1.3170946138550925 -0.1122979386498820 0.0
0.5037005550626323 -0.3039055191439524 0.0
0.4521357325768411 -0.3103707075994881 0.0
-0.0251322160222402 -0.2134649805830896 0.0
1.3774358622926821 -0.1760499774418807 0.0
0.6322000318822231 -0.9123690762399429 0.0
0.1315640227164533 -0.4855966630746505 0.0
0.4306282099262506 -0.6676756952652042 0.0
1.0051535189190404 -1.0352522712402461 0.0
0.8787858296067222 -1.1672018340074721 0.0
1.4931893444890840 -0.0618203469311782 0.0
1.4895914483703672 -0.0928440731753755 0.0
0.6298196600067455 -1.2081477993687504 0.0
1.0224945464371891 -0.2488099198035670 0.0
0.9838181459178350 -0.2077894833729739 0.0
0.5601243493594202 -0.1509342891630355 0.0
0.5493909119877922 -0.1590054136482573 0.0
1.5457538521603982 -0.1084475244696065 0.0
0.9326978313288145 -1.0374546718265907 0.0
0.3957514376822600 -1.0471770840263117 0.0
1.2064627367125456 -0.1668732883889950 0.0
1.5662398184936415 -0.0873809407971950 0.0
1.5756389196349727 -0.0918453514670369 0.0
1.2603804097263447 -0.1616659436235637 0.0
0.1275433736060717 -0.0077304277414501 0.0
0.1346295345126628 -0.0057797279332808 0.0
0.4318070457507643 0.0648590956984882 0.0
1.3478923401149141 -0.1325955800930316 0.0
1.3283914503932213 0.0149899333570465 0.0
0.4216127152715146 -0.8285893437690528 0.0
0.1664338236963907 -0.2515696853503958 0.0
0.1399180828597066 -0.2325259984408341 0.0
0.2198156026696357 -0.0796549905625806 0.0
0.1996668683141718 -0.0816185281208079 0.0
0.3802591510165396 -0.6329788525383548 0.0
-0.0260724740005619 -0.1541722104814492 0.0
0.8402309034335183 -0.7764538687138195 0.0
0.5219727285169506 0.0366125816716322 0.0
0.5054084024875720 0.0193967174903614 0.0
1.4806003347277350 -0.0464389714120986 0.0
1.4806502739656882 -0.0577576057463766 0.0
0.9138350012874750 -1.0756981071890370 0.0
1.5474350909375012 -0.1815902524416065 0.0
0.4323608958399152 -0.0502302434516329 0.0
0.0604792277510334 -0.0508799093981633 0.0
0.0460252526297656 -0.0476127032027608 0.0
0.3615990904090736 -0.7910971132682192 0.0
0.0327131863292288 -0.1489753332701233 0.0
0.6759030990463558 -0.8123417105161279 0.0
1.4191138327337860 -0.1357643744270682 0.0
0.6488472540901499 -0.3746000095235423 0.0
0.6149229141782052 -0.4007554169292235 0.0
0.5993176761958436 -1.0651269119686648 0.0
0.6702626540736600 0.0787610669145885 0.0
0.6674304541050704 0.0813954860140558 0.0
0.7412422699973690 -1.0372979563464173 0.0
0.1092175980947985 -0.6996251522042433 0.0
0.1019526985311549 -0.5499889944669454 0.0
-0.0061346881254881 -0.1442569458743782 0.0
0.8423354080922123 0.0647995012819640 0.0
0.8054927277169300 0.0961698518033003 0.0
0.8328943826784996 -0.0509058815954564 0.0
0.8040235013995682 -0.0678357659307960 0.0
0.3032306066619505 -0.8849968045051914 0.0
0.6958636953370750 -0.1690180639400444 0.0
0.7254717762161969 -0.8952374639155678 0.0
1.3034585790067112 -0.7724094460156242 0.0
0.5582449800062177 0.0810488441387434 0.0
1.4802329617211079 -0.0104030443002309 0.0
1.4838793420625480 -0.0062872369966401 0.0
1.0551893671055390 -1.0859409191554721 0.0
0.6935729929357095 -1.0540023414401405 0.0
1.3473705090112205 -0.1831196883357985 0.0
0.6790265792532107 -1.1232230470216293 0.0
0.0324881794410652 -0.4847319461461753 0.0
1.2105005630849452 -0.0820555549071661 0.0
0.3720194986027080 -1.0367453754801452 0.0
1.6137713789578954 -0.1032632733732597 0.0
0.4120459851151965 -0.0055947933959861 0.0
1.5794082058042165 -0.0851721953893972 0.0
1.5495103001404402 -0.0992510754999001 0.0
0.0169645390325034 0.0042511363510822 0.0
0.0256454616272133 0.0062433383780085 0.0
0.5371701338159012 0.0409200097242321 0.0
0.3680214707887255 -0.0566768501616018 0.0
0.0108113848387470 -0.0041967736426368 0.0
0.0161478130719591 -0.0030066143934674 0.0
0.5545555245217486 -0.0348651194126416 0.0
0.6049370375601733 -0.7920752911505923 0.0
0.5590593880533248 -0.0340526450785589 0.0
0.5529904422758479 -0.0267975805961692 0.0
0.7142017024511359 -0.2836936711178278 0.0
0.7499058755487593 -0.2722409862323087 0.0
0.5981435336824817 -0.6751420930781825 0.0
0.3499183201266822 -0.3878779115089398 0.0
0.3904263877928469 -0.4059559267612450 0.0
0.0451256015961131 0.0072591466737279 0.0
0.0317150459623945 0.0045814670388708 0.0
1.3656656470979864 -0.5159570045255870 0.0
1.2606082424578386 -0.6311623308252955 0.0
0.8728398239208424 -0.5490308407218835 0.0
0.8163793349543724 -0.4851314877677911 0.0
