# vtk DataFile Version 3.0
LucasCarvalhoTCC Results
ASCII

DATASET POLYDATA
FIELD FieldData 1
TIME 1 1 double
3.6

POINTS 380 float
0.0 2.0 0.0
2.0 2.0 0.0
3.0 2.0 0.0
3.0 1.0 0.0
5.0 1.0 0.0
5.0 0.0 0.0
3.0 0.0 0.0
2.0 0.0 0.0
2.0 1.0 0.0
0.0 1.0 0.0
0.2643114543905713 2.0 0.0
0.5169795502969444 2.0 0.0
0.7585171880292413 2.0 0.0
0.9894145836600268 2.0 0.0
1.210140497826619 2.0 0.0
1.421143008568911 2.0 0.0
1.622850459538253 2.0 0.0
1.815672303789548 2.0 0.0
2.188552664328277 2.0 0.0
2.359329284173903 2.0 0.0
2.514005696104645 2.0 0.0
2.654099788331341 2.0 0.0
2.780986322989182 2.0 0.0
2.895910470953052 2.0 0.0
3.0 1.9 0.0
3.0 1.8 0.0
3.0 1.7 0.0
3.0 1.6 0.0
3.0 1.5 0.0
3.0 1.4 0.0
3.0 1.3 0.0
3.0 1.2 0.0
3.0 1.1 0.0
3.105031513416626 1.0 0.0
3.221094637894669 1.0 0.0
3.349348047908936 1.0 0.0
3.491072094154001 1.0 0.0
3.647681638607018 1.0 0.0
3.820740106959136 1.0 0.0
4.011975186625977 1.0 0.0
4.223295996958671 1.0 0.0
4.456812096249916 1.0 0.0
4.714854728122151 1.0 0.0
5.0 0.7500000000000003 0.0
5.0 0.5000000000000012 0.0
5.0 0.2500000000000011 0.0
4.735688545609428 0.0 0.0
4.483020449703056 0.0 0.0
4.241482811970759 0.0 0.0
4.010585416339973 0.0 0.0
3.789859502173381 0.0 0.0
3.578856991431089 0.0 0.0
3.377149540461747 0.0 0.0
3.184327696210452 0.0 0.0
2.811447335671723 0.0 0.0
2.640670715826097 0.0 0.0
2.485994303895355 0.0 0.0
2.345900211668659 0.0 0.0
2.219013677010818 0.0 0.0
2.104089529046948 0.0 0.0
2.0 0.1 0.0
2.0 0.2 0.0
2.0 0.3 0.0
2.0 0.4 0.0
2.0 0.5 0.0
2.0 0.6 0.0
2.0 0.7 0.0
2.0 0.8 0.0
2.0 0.9 0.0
1.894968486583374 1.0 0.0
1.77890536210533 1.0 0.0
1.650651952091063 1.0 0.0
1.508927905845999 1.0 0.0
1.352318361392982 1.0 0.0
1.179259893040864 1.0 0.0
0.9880248133740233 1.0 0.0
0.7767040030413299 1.0 0.0
0.5431879037500846 1.0 0.0
0.2851452718778493 1.0 0.0
0.0 1.25 0.0
0.0 1.499999999999999 0.0
0.0 1.749999999999999 0.0
2.426045913985508 1.348290599604586 0.0
2.562221387987337 0.6558377602558874 0.0
1.966703786708101 1.492474555319359 0.0
3.033486484223225 0.4973568340887861 0.0
2.371610747520728 0.97814425147097 0.0
2.648098402859118 1.648016516253387 0.0
2.351901597140882 0.3519834837466129 0.0
2.694321138879857 1.061432730999581 0.0
1.441644339445862 1.496646809257773 0.0
3.554831642064292 0.501744031268764 0.0
2.720742750697982 1.350625068836981 0.0
2.282037541072919 0.639419348257894 0.0
2.813390610951134 0.7911761792959446 0.0
2.310700631729327 1.679155452525512 0.0
2.688751528716965 0.3206838402855661 0.0
2.211165393176843 1.213708510063781 0.0
0.9449004170027906 1.496357611130017 0.0
4.05509958299721 0.5036423888699835 0.0
3.025501657200047 0.7528388163714679 0.0
1.714778657098197 1.300039655550584 0.0
1.958264922640818 1.245975101752485 0.0
2.206386339371814 0.8500000000000001 0.0
3.336706349465057 0.704398544338507 0.0
4.529565928894533 0.555233644424822 0.0
0.4704340711054673 1.444766355575178 0.0
2.186983355180128 1.461437746541105 0.0
2.553715879020142 0.8859594914241276 0.0
2.782212276375736 0.5474565156445963 0.0
2.500206140967324 1.148517546040804 0.0
2.803373162317882 1.783880361314082 0.0
2.196626837682118 0.2161196386859174 0.0
1.735623536927746 1.664129737658362 0.0
3.268802735993943 0.3358439745752063 0.0
2.799454045372581 1.51553500056848 0.0
2.18762015375897 0.4992029885790829 0.0
2.813478812948685 1.18678600527921 0.0
2.400994471757771 0.7612313552289275 0.0
2.405444563947088 0.5311203927463914 0.0
2.583195945356847 1.473216966241769 0.0
3.734210872783077 0.7260959952797862 0.0
1.256500988572085 1.265010492624376 0.0
2.938353069321001 0.2909212553641365 0.0
2.061245308362322 1.709221243241415 0.0
2.182240881432738 1.001025052084926 0.0
2.830214026212788 0.9796244234047695 0.0
2.49023894829247 1.787687811117195 0.0
2.50976105170753 0.2123121888828049 0.0
1.194806886820808 1.686899295332255 0.0
3.805193113179192 0.3131007046677451 0.0
2.655039231860651 1.208917360245127 0.0
1.493530449555064 1.231198576616718 0.0
2.345622594939228 1.152685186835846 0.0
2.41380980106708 1.521513100394759 0.0
2.58979513084283 0.4863225267637531 0.0
2.135472648094309 0.7246460081196311 0.0
2.912574128751924 0.660128736186259 0.0
2.866043013605144 1.353074765380587 0.0
0.6928324624395237 1.69170809873467 0.0
4.307167537560476 0.3082919012653306 0.0
2.071506740582853 1.128535871978767 0.0
0.6831902494895832 1.302725441792086 0.0
4.316809750510417 0.6972745582079137 0.0
2.85534466702333 1.667491236848871 0.0
2.141886244104996 0.336139391754002 0.0
1.447743165823209 1.773242752731258 0.0
3.554386585610856 0.224002072703283 0.0
2.96485662756902 0.8593908564801968 0.0
3.240425509636175 0.8099760775594669 0.0
2.088410584923666 1.339747073830609 0.0
3.277530767974837 0.4939020807639749 0.0
3.534313505233912 0.7935179117986669 0.0
2.546683861402325 1.011736398479819 0.0
2.664793655038503 0.758149595673951 0.0
2.7009922066801 0.9086021996324817 0.0
1.844652141496971 1.153158997353228 0.0
2.575910747861113 1.316876286520138 0.0
3.994328863599566 0.7454319923658932 0.0
1.005671136400434 1.254568007634107 0.0
1.722192091537185 1.482888323667831 0.0
2.644751416415203 1.850904811198953 0.0
2.355248583584797 0.1490951888010467 0.0
2.31560379269905 1.25706851182614 0.0
2.129697972466254 0.5864366202645266 0.0
2.417220568140766 0.6397160301847872 0.0
2.867945749403976 1.069821281672812 0.0
3.182303046124178 0.6739667261124369 0.0
4.702774994215813 0.2953677284017739 0.0
0.2972250057841874 1.704632271598226 0.0
2.90043748182062 0.4316738443013928 0.0
2.486081387366873 0.3514585853722887 0.0
2.513918612633127 1.648541414627711 0.0
2.086778258621772 1.563111332603502 0.0
4.025359850459486 0.2638518716814435 0.0
0.9746401495405139 1.736148128318556 0.0
3.116389458098145 0.2933651166122753 0.0
1.885410353788165 1.707062521230272 0.0
2.327134732627959 1.833634230002939 0.0
2.672865267372041 0.1663657699970617 0.0
1.675899428547673 1.15999616666306 0.0
1.858973331615206 1.373382723203102 0.0
2.860266039499884 1.862282581689995 0.0
2.139733960500116 0.1377174183100045 0.0
1.257473476073173 1.479081588926576 0.0
3.731624273377778 0.5208146070195914 0.0
2.115038607594509 0.9238947313642476 0.0
0.2734661728051435 1.270630989444945 0.0
4.726533827194856 0.7293690105550548 0.0
2.699965708650878 1.465007479364728 0.0
2.298365077320068 0.5341069340550768 0.0
2.510583000486659 0.7602856732279889 0.0
3.370667741214912 0.8392397884376295 0.0
3.067541604254986 0.8806352314757129 0.0
2.90073732483139 1.443475210354718 0.0
2.264071206758208 0.9501943312745662 0.0
2.278663096491763 0.7489636980394857 0.0
1.952511813454414 1.110576661474517 0.0
2.744352083917141 0.687787375233183 0.0
1.566252941493004 1.383661493752942 0.0
2.437660520624072 0.8703573012735125 0.0
2.904826075218911 1.261819176983655 0.0
2.305967018083784 1.391390767447104 0.0
2.105729326736999 0.8145314366030645 0.0
2.428967188976762 1.236966721617647 0.0
3.060475488407204 0.1442825789852263 0.0
1.934979199332455 1.852811714602595 0.0
2.095475260770118 0.4348597444661615 0.0
2.914777085426361 1.759093454264707 0.0
2.084827330449114 0.2414252069642749 0.0
2.207128288422204 1.315477221019454 0.0
2.658751426439581 0.5773232450959589 0.0
2.612380011409894 1.114144853433198 0.0
2.897371573983894 1.569769587751228 0.0
0.5001010519014215 1.226918930408543 0.0
4.499898948098578 0.7730810695914568 0.0
2.753086810589338 1.690362801865437 0.0
2.246793053318422 0.3097947118702842 0.0
3.391580469276819 0.5673489147038103 0.0
3.035026488699165 0.6179797538177514 0.0
2.449819864663089 1.055109427275025 0.0
2.27653308928065 1.054384468582349 0.0
2.794675693196835 1.418106589018447 0.0
2.778866980525137 1.083577784614141 0.0
2.244522876020972 0.1116738824400324 0.0
2.755477123979027 1.888326117559968 0.0
2.323887028942199 0.8604475039748537 0.0
2.204900210979926 1.747483509451062 0.0
2.794853185869193 0.2526222191943996 0.0
2.320767315286541 1.530441598510029 0.0
1.550828143561484 1.606851581022188 0.0
2.796593663741882 1.288013595743853 0.0
3.436143660897262 0.3940652474171653 0.0
2.682379445750112 0.4493639922429763 0.0
3.242313228541417 0.154845696987206 0.0
1.75965289115187 1.844031320058407 0.0
1.3642341383496 1.159631408929946 0.0
1.980047380836635 1.36362624976796 0.0
2.070303834520089 1.451946835577872 0.0
2.55866460451515 1.229901920133861 0.0
4.26844523535139 0.499131154814159 0.0
0.7315547646486098 1.500868845185841 0.0
2.716116351489881 1.570657861970705 0.0
2.283245236086922 0.4299499540566049 0.0
4.50573905238033 0.204273435313806 0.0
0.4942609476196695 1.795726564686194 0.0
3.605070352001925 0.644396355247622 0.0
3.171946621948212 0.9019117497969773 0.0
3.40309695214227 0.1789624633199048 0.0
1.59690304785773 1.821037536680094 0.0
4.776800700354217 0.5074282293075529 0.0
0.2231992996457826 1.492571770692447 0.0
1.293020597407515 1.839015256431498 0.0
3.706979402592485 0.1609847435685022 0.0
1.398281395597716 1.351857389185529 0.0
2.880181082677912 0.1378504756446906 0.0
2.119200639021148 1.861833157788504 0.0
2.408646939494887 0.2452196658480275 0.0
2.591353060505113 1.754780334151973 0.0
1.146570081566377 1.160946826906423 0.0
3.853429918433624 0.8390531730935771 0.0
2.920846657438631 1.149071660619678 0.0
2.101132283911678 1.226382957654413 0.0
2.903672483971366 0.7774662795474147 0.0
2.516386521935266 0.571665255016536 0.0
2.475412447847437 1.444413760085193 0.0
2.903041575637174 0.5510905120278109 0.0
3.666476299189054 0.8553176740217776 0.0
1.558137053653031 1.119389262041809 0.0
3.867595456948903 0.1475874639835382 0.0
1.132404543051097 1.852412536016462 0.0
2.635017655944937 0.9730281566682446 0.0
2.436667490139274 1.901171080200935 0.0
2.563332509860726 0.09882891979906516 0.0
2.091598337090247 1.040423151014485 0.0
0.8316881289508771 1.172977685150089 0.0
4.168311871049123 0.827022314849911 0.0
3.648565743761548 0.3681286963687066 0.0
1.355037313653319 1.636865536133179 0.0
2.58412781071005 1.576586299624529 0.0
2.41587218928995 0.4234137003754711 0.0
2.083716468691946 0.6634832154935376 0.0
1.843942294678346 1.256771801786488 0.0
[...]
POINT_DATA 380

VECTORS Velocity float
0.0000000000000000 0.0000000000000000 0.0
0.0000000000000000 0.0000000000000000 0.0
0.0000000000000000 0.0000000000000000 0.0
0.0000000000000000 0.0000000000000000 0.0
0.0000000000000000 0.0000000000000000 0.0
0.9186860493205025 -0.1330536099372947 0.0
0.0000000000000000 0.0000000000000000 0.0
0.0000000000000000 0.0000000000000000 0.0
0.0000000000000000 0.0000000000000000 0.0
0.0000000000000000 0.0000000000000000 0.0
0.0000000000000000 0.0000000000000000 0.0
0.0000000000000000 0.0000000000000000 0.0
0.0000000000000000 0.0000000000000000 0.0
0.0000000000000000 0.0000000000000000 0.0
0.0000000000000000 0.0000000000000000 0.0
0.0000000000000000 0.0000000000000000 0.0
0.0000000000000000 0.0000000000000000 0.0
0.0000000000000000 0.0000000000000000 0.0
0.0000000000000000 0.0000000000000000 0.0
0.0000000000000000 0.0000000000000000 0.0
0.0000000000000000 0.0000000000000000 0.0
0.0000000000000000 0.0000000000000000 0.0
0.0000000000000000 0.0000000000000000 0.0
0.0000000000000000 0.0000000000000000 0.0
0.0000000000000000 0.0000000000000000 0.0
0.0000000000000000 0.0000000000000000 0.0
0.0000000000000000 0.0000000000000000 0.0
0.0000000000000000 0.0000000000000000 0.0
0.0000000000000000 0.0000000000000000 0.0
0.0000000000000000 0.0000000000000000 0.0
0.0000000000000000 0.0000000000000000 0.0
0.0000000000000000 0.0000000000000000 0.0
0.0000000000000000 0.0000000000000000 0.0
0.0000000000000000 0.0000000000000000 0.0
0.0000000000000000 0.0000000000000000 0.0
0.0000000000000000 0.0000000000000000 0.0
0.0000000000000000 0.0000000000000000 0.0
0.0000000000000000 0.0000000000000000 0.0
0.0000000000000000 0.0000000000000000 0.0
0.0000000000000000 0.0000000000000000 0.0
0.0000000000000000 0.0000000000000000 0.0
0.0000000000000000 0.0000000000000000 0.0
0.0000000000000000 0.0000000000000000 0.0
1.1551957830790425 0.3641596594052935 0.0
0.7957334329203954 0.0633227318272542 0.0
1.1395725587847010 -0.2965632875274057 0.0
0.0000000000000000 0.0000000000000000 0.0
0.0000000000000000 0.0000000000000000 0.0
0.0000000000000000 0.0000000000000000 0.0
0.0000000000000000 0.0000000000000000 0.0
0.0000000000000000 0.0000000000000000 0.0
0.0000000000000000 0.0000000000000000 0.0
0.0000000000000000 0.0000000000000000 0.0
0.0000000000000000 0.0000000000000000 0.0
0.0000000000000000 0.0000000000000000 0.0
0.0000000000000000 0.0000000000000000 0.0
0.0000000000000000 0.0000000000000000 0.0
0.0000000000000000 0.0000000000000000 0.0
0.0000000000000000 0.0000000000000000 0.0
0.0000000000000000 0.0000000000000000 0.0
0.0000000000000000 0.0000000000000000 0.0
0.0000000000000000 0.0000000000000000 0.0
0.0000000000000000 0.0000000000000000 0.0
0.0000000000000000 0.0000000000000000 0.0
0.0000000000000000 0.0000000000000000 0.0
0.0000000000000000 0.0000000000000000 0.0
0.0000000000000000 0.0000000000000000 0.0
0.0000000000000000 0.0000000000000000 0.0
0.0000000000000000 0.0000000000000000 0.0
0.0000000000000000 0.0000000000000000 0.0
0.0000000000000000 0.0000000000000000 0.0
0.0000000000000000 0.0000000000000000 0.0
0.0000000000000000 0.0000000000000000 0.0
0.0000000000000000 0.0000000000000000 0.0
0.0000000000000000 0.0000000000000000 0.0
0.0000000000000000 0.0000000000000000 0.0
0.0000000000000000 0.0000000000000000 0.0
0.0000000000000000 0.0000000000000000 0.0
0.0000000000000000 0.0000000000000000 0.0
1.0000000000000000 0.0000000000000000 0.0
1.0000000000000000 0.0000000000000000 0.0
1.0000000000000000 0.0000000000000000 0.0
0.9089583875304159 -0.8069903910156128 0.0
0.7961406382087174 -0.8260230016896235 0.0
1.5112516955718138 -0.2584302777367251 0.0
1.4538792542333769 -0.2541267717621750 0.0
0.5834244739808605 -1.1856243915823552 0.0
0.2815776241658307 -0.2059250509377306 0.0
0.2437373403377069 -0.1986193467444519 0.0
0.5687910529545237 -1.2112766373060826 0.0
1.5742697132962580 -0.0773739626938033 0.0
1.6110046809145175 -0.1186076779125110 0.0
0.2760722396045338 -0.6974187731805670 0.0
0.2549063157497924 -0.6229728652836620 0.0
1.1528560014382321 -0.9966317857150342 0.0
0.7056743415699450 -0.1973432484511804 0.0
0.6688353996291108 -0.1844944490622751 0.0
1.1526409264586834 -0.9048907438670176 0.0
1.6001225002764694 -0.0191389098333569 0.0
1.5975276574498731 -0.0087483602670007 0.0
1.4942090944784545 -0.3569507191043647 0.0
1.5006444489253394 -0.0627479311119715 0.0
1.4397910964335012 -0.3181771623959117 0.0
0.2539410127655948 -0.8486145283218356 0.0
1.5156945933186079 -0.0684476284645287 0.0
1.5836678222497211 0.0096713520828145 0.0
1.5334946734881179 0.0359425758984457 0.0
1.2767617917618466 -0.4942345974205911 0.0
0.6837179749915708 -1.1614076444257964 0.0
1.1751497803965036 -0.4471600152713542 0.0
0.6759375600324403 -1.1710799810091257 0.0
0.0627866497580416 -0.0685141435038120 0.0
0.0521605424113700 -0.0611039099433486 0.0
1.1895998586990177 -0.0823816052759854 0.0
1.1161224150977849 -0.0917203111029462 0.0
0.1158038493654788 -0.3358773208415275 0.0
0.0841753689341838 -0.2759191769213588 0.0
0.1714695265446005 -0.7648456256640632 0.0
0.4880054487398805 -0.9616430675965293 0.0
0.4619725789012173 -0.5532789488851378 0.0
0.5288948109928531 -0.5521798698080699 0.0
1.3920316357806606 -0.0118146156566875 0.0
1.3070634488609589 -0.0808145539216257 0.0
0.8102033119328272 -0.1273006965814726 0.0
0.8755868638854110 -0.1295715059954555 0.0
0.5586558543627188 -1.0057033148952952 0.0
0.6229332238399140 -1.1142006502640804 0.0
0.3071046725107099 -0.0324331622744584 0.0
0.2870995900699198 -0.0370631193654672 0.0
1.2777685422204335 0.0119603116306411 0.0
1.2784270763984951 0.0083159802832151 0.0
0.4618331326768924 -1.0386635697069375 0.0
1.2569686882225826 0.0005625750068772 0.0
0.8719206592243386 -1.0828266026091522 0.0
0.7816909342391307 -0.4652017028079655 0.0
0.7954876749249047 -0.5046142755328390 0.0
0.0240711046457250 -0.3767958199902404 0.0
1.5005919158972658 -0.5513236464893958 0.0
0.0636994752078599 -0.4049108819777997 0.0
1.3446348919386744 0.0064967887925068 0.0
1.3449563891107836 0.0148984696601519 0.0
1.1058636927990206 -0.7550806328525576 0.0
1.3761732870684862 -0.0383829641384696 0.0
1.3736339603615697 -0.0565447991761287 0.0
0.0532911418541826 -0.1189815860352527 0.0
0.0462187486231554 -0.1033521701045040 0.0
0.7917981312827272 -0.0089973864176779 0.0
0.7758348015909970 -0.0267912178720991 0.0
1.2450388052556616 -0.5757463404354310 0.0
1.2441130545701886 -0.1019181676829871 0.0
1.4434115323179963 -0.5604583663351322 0.0
1.5348544231322192 -0.0926743783079009 0.0
1.2075634751468729 -0.0642069341707016 0.0
0.6526399229913670 -1.2251461047581413 0.0
0.9300174986702525 -0.9493084884237476 0.0
0.7983184241108153 -1.2274720982956280 0.0
1.0773849193196481 -0.0600483616924084 0.0
0.5887271832922714 -0.8804357855970294 0.0
1.0658408926877592 -0.0515117800029904 0.0
1.0675774990164915 -0.0523771567519057 0.0
1.5780347638383667 -0.0691901009739797 0.0
0.0987786200411479 -0.0390184015562304 0.0
0.0885222886196936 -0.0366402784788713 0.0
1.0362835661484164 -0.9023220612560743 0.0
0.0428949480114053 -0.2054664754310621 0.0
0.4856020483591798 -0.7364099968661764 0.0
0.2436920367854970 -0.7976436184603780 0.0
1.5641978069320359 -0.1648667749871348 0.0
1.2289783539206760 -0.2189544273522910 0.0
1.2102199589449263 -0.2003533766143009 0.0
1.1848968067550016 -0.2674882407460332 0.0
0.4208817541688381 -0.2216884001883909 0.0
0.4551582684109319 -0.2157164285410113 0.0
1.2652734577337474 -0.2937491362024982 0.0
1.0451716292529891 -0.0263319433406818 0.0
1.0432013633888695 -0.0271818290433989 0.0
0.9400745554994395 -0.1119649418157603 0.0
1.0114500833222495 -0.1168849244621675 0.0
0.2749849420789609 -0.0514412187364976 0.0
0.2648467225904765 -0.0481402955790714 0.0
0.8371643037272469 -0.0197727111378198 0.0
1.5805492429989723 -0.1537708206045331 0.0
0.0163449545421528 -0.0177967548995304 0.0
0.0127691548690335 -0.0156185640494194 0.0
1.5372475442746716 -0.0976028525939184 0.0
1.5697065936128984 -0.1277601634736314 0.0
0.1382373307714093 -0.5054343739325683 0.0
1.0960127723926902 0.2306004114072708 0.0
1.0937111112103644 0.2310507028542566 0.0
0.2814666828625847 -0.5138370235242716 0.0
0.2389547031286571 -0.4505866779617405 0.0
0.6647514613618342 -1.0236401016307430 0.0
0.9304979940107070 -0.0548163449851785 0.0
0.8806748986202313 -0.1795909592893195 0.0
0.0376431194896591 -0.1929556310347088 0.0
0.4693300656292027 -1.1113028458361141 0.0
0.2626010079027757 -0.8422182006624739 0.0
0.7860652263510295 -0.1254905658578053 0.0
1.1424476338456535 -0.7976913218106241 0.0
1.5610436494315549 -0.0509831433410696 0.0
0.5693893115646605 -1.1309026308796071 0.0
0.0286116906606191 -0.3283659883328996 0.0
1.1107701293218974 -0.6670749353682132 0.0
0.0670735950042201 -0.3049386274828143 0.0
0.8071686674616015 -1.0375546462349876 0.0
0.4077884680558546 -0.0211538516025898 0.0
0.4313052201822558 -0.0189624094630024 0.0
0.0422087738055506 -0.1000040428317453 0.0
0.0218124794827897 -0.0324412629688689 0.0
0.0175316223872228 -0.0277606695052165 0.0
1.2818284781097682 -0.7654049932217355 0.0
0.9725141895508040 -0.6396515577179340 0.0
0.5893292081886361 -1.1758107443285581 0.0
0.0293725224642571 -0.1234108933127716 0.0
0.8660192458678400 0.1645742180620228 0.0
0.8387572524522918 0.1312634900613417 0.0
0.1512910902390643 -0.1723505937206386 0.0
0.1298679808165276 -0.1559356949018277 0.0
1.6425507135071296 -0.1215761861910037 0.0
1.6018345032299304 -0.3215915758724529 0.0
0.6660771323282935 -1.2200200217761141 0.0
0.7073777659438648 -1.1383395699234844 0.0
0.1420597852353681 -0.4381822311717265 0.0
0.4200273294136925 -1.0790447866915185 0.0
0.0337289701865455 -0.0258719936447428 0.0
0.0391792269862979 -0.0286034647544421 0.0
0.4529617779824586 -1.0619114473130684 0.0
0.6510068316463630 -0.1359546036277997 0.0
0.6122332719613029 -0.1212942636339726 0.0
0.9926641916744289 -0.4317417182700307 0.0
1.3581805665041842 -0.0309714130041426 0.0
0.1585713755091158 -0.6119451260719989 0.0
1.3030812049464144 -0.0649038870485197 0.0
0.9428723331680118 -0.4055943858243499 0.0
0.5024463246771604 -0.0331974404188632 0.0
0.5279129244377374 -0.0361116128676361 0.0
0.8942511085213801 -0.0196334792279650 0.0
1.5388833340174974 -0.3471186988366647 0.0
1.4679993100809561 -0.4082266589370689 0.0
0.5876124262983556 -1.0493565058549370 0.0
1.6000799292294259 -0.0535182279514806 0.0
1.5899115080714501 -0.0449725384240400 0.0
0.2184566292831445 -0.3077742377733369 0.0
0.1868493494957240 -0.2822994707490610 0.0
0.7798911758862368 -0.1433744089150348 0.0
0.8008044765341593 -0.1598543811595063 0.0
1.5600538155336725 -0.0767362616258200 0.0
0.5612013634681188 -0.0569937803702680 0.0
0.6320476513085657 -0.0791383275308421 0.0
0.6583546373421186 -0.0807135249838024 0.0
1.2611489632273380 0.0574693504491888 0.0
1.2108933301781899 0.0466458245273354 0.0
0.6386367790178064 0.0333005141175699 0.0
0.6390323493425144 0.0304460061723224 0.0
1.4568580615093492 -0.0522652076624012 0.0
0.3124424762723528 -0.0551791164546732 0.0
0.3316704784241493 -0.0594758545865205 0.0
0.2333269713460683 -0.1156607425424214 0.0
0.2553498552673559 -0.1183213396646665 0.0
0.7325005967428221 0.0588009604218227 0.0
0.7339963482107178 0.1058487386027707 0.0
0.0405932271028132 -0.3614425483553718 0.0
1.3145840620697407 -0.7083072760084831 0.0
1.3451615321701238 -0.7378101398367355 0.0
0.6744209802882737 -0.6622270754160707 0.0
0.7720403180364679 -0.5971189731914166 0.0
1.4269011152840876 -0.4219277402393590 0.0
0.6074103606859028 0.0250446430591559 0.0
0.6297614403356214 -0.0164872683613547 0.0
0.5366290567114395 -0.1091759748905589 0.0
0.5391357875878334 -0.1067882439818145 0.0
0.6802337412999362 -1.2468850204552573 0.0
0.0964107121398405 -0.0248972123079645 0.0
0.0907574418646216 -0.0257575568955442 0.0
0.5717614670582745 -0.7281628848858418 0.0
0.6719533337143946 -0.0978229464586785 0.0
0.6705753506394760 -0.1056936527383945 0.0
1.3079183723770771 -0.1401045635133789 0.0
1.3140232605307820 -0.1133788120235884 0.0
0.4655338641379979 -0.3277149693858930 0.0
0.4034968456347797 -0.3256613052416162 0.0
0.0003347506279917 -0.1632433327103383 0.0
1.3691782897831779 -0.1453508959266756 0.0
0.6082995365026022 -0.7979474136444065 0.0
0.1170894272434748 -0.4310210938570682 0.0
0.4365333749359891 -0.7334784973296954 0.0
0.9793359532528823 -0.9654234099290249 0.0
0.8981705636371481 -1.1496815403603784 0.0
1.4969934915586192 -0.0652823233199294 0.0
1.4925703723646357 -0.0964731279090990 0.0
0.6488018843824700 -1.2239271651798431 0.0
1.0446243402616942 -0.2731223546265038 0.0
0.9930939741599464 -0.2217126868064997 0.0
0.5108164801807515 -0.1653400626737506 0.0
0.4910788167447231 -0.1707480160356982 0.0
1.5599049001233276 -0.1081686591328124 0.0
0.9878538292017192 -1.0935078249637629 0.0
0.4156384441056211 -1.0707054784250194 0.0
1.2126199313335435 -0.1680945545185736 0.0
1.5662387307759671 -0.0919026470284861 0.0
1.5757088147676648 -0.0970180071561523 0.0
1.2860090929536920 -0.1699958425369483 0.0
0.0984900985458114 -0.0109467586206071 0.0
0.1069967891059369 -0.0092371699029466 0.0
0.4209028458892634 0.0681685570476691 0.0
1.3626216835642513 -0.1374161329651371 0.0
1.3214929454666244 0.0350309949531730 0.0
0.4391705165607100 -0.9058136665056229 0.0
0.1128484735717902 -0.2333397216059995 0.0
0.0910179260065142 -0.1984934639716051 0.0
0.1546314844964555 -0.0854788522564114 0.0
0.1363112843216951 -0.0797731267401780 0.0
0.3729400261709233 -0.6553130193327495 0.0
0.0064737321598559 -0.1200080863282943 0.0
0.9104786745440687 -0.8682942123491825 0.0
0.5211549503260399 0.0366156768361435 0.0
0.5041525808032935 0.0190445662741174 0.0
1.4811087263528564 -0.0481544007043113 0.0
1.4811440623507444 -0.0597921225571830 0.0
0.9458130686862199 -1.0788289311627168 0.0
1.6016279881778737 -0.1678364907237940 0.0
0.4295167304049436 -0.0484449707846830 0.0
0.0201042895354597 -0.0417158759726876 0.0
0.0142777754943848 -0.0355608684240981 0.0
0.3736933639394763 -0.8164688028713311 0.0
0.0206844187819065 -0.1108105449443314 0.0
0.7253217989624523 -0.9358764779314795 0.0
1.4505239263044889 -0.1392943889970139 0.0
0.6448454129599602 -0.4211773860389526 0.0
0.6001804125267416 -0.4383403869569823 0.0
0.6316474128017704 -1.2034280920727063 0.0
0.6699423984107844 0.0781558186116179 0.0
0.6671564390337060 0.0808292537607755 0.0
0.7891579741704641 -1.1561161375431079 0.0
0.1278964559793213 -0.6098684219746032 0.0
0.1088917024222667 -0.4773196459865220 0.0
0.0082031611143809 -0.1161208163459001 0.0
0.8421414833602193 0.0649266342398931 0.0
0.8047887962276422 0.0968898043065729 0.0
0.8330069665636907 -0.0507607028398821 0.0
0.8045533864547688 -0.0670431134516521 0.0
0.3159740039072571 -0.8871914755423554 0.0
0.6437929866367070 -0.1500673633231696 0.0
0.7756808583889999 -1.0177805124843229 0.0
1.3642853242760049 -0.7772615258672904 0.0
0.5331101653002216 0.0846419721421553 0.0
1.4804390007122739 -0.0119878693512543 0.0
1.4842121551323952 -0.0080236727899095 0.0
1.0392889449461300 -1.0060767970009357 0.0
0.7360095133412421 -1.1764056218718375 0.0
1.3262287007497744 -0.1561054705562811 0.0
0.7103571019701070 -1.2036240669048031 0.0
0.0810185161027456 -0.4021443168707584 0.0
1.1807286456205388 -0.0553421407784157 0.0
0.3743296269331519 -0.9329884160276372 0.0
1.6535154382534858 -0.0912377593974316 0.0
0.4114502639504640 -0.0052081204377342 0.0
1.5812423269270417 -0.0861169235244229 0.0
1.5503658106047906 -0.0992889069081072 0.0
-0.0043052324695007 -0.0009214245821111 0.0
-0.0036971513706193 -0.0009913885814227 0.0
0.5346798970801270 0.0427211792572768 0.0
0.3431549477953419 -0.0446211765226388 0.0
-0.0019124144420061 -0.0059808635931120 0.0
-0.0011293374558963 -0.0066863050792400 0.0
0.5564380979855325 -0.0345693211248432 0.0
0.6354137446222788 -0.8909505006368530 0.0
0.5591299700275234 -0.0341103145846961 0.0
0.5532606054194418 -0.0270577547954578 0.0
0.6894931614142462 -0.3144291285210831 0.0
0.7388270649063817 -0.3105868681318850 0.0
0.6365764559322943 -0.7739539860526772 0.0
0.3053240460560180 -0.3928699835197189 0.0
0.3516772355948985 -0.4321261894547400 0.0
-0.0013691704414198 -0.0025982445847686 0.0
-0.0027432679213944 -0.0023678870979388 0.0
1.2884256012856337 -0.4677974486445157 0.0
1.3488969626761043 -0.6516854758018186 0.0
0.9394386958214804 -0.6208144022962923 0.0
0.7493424181594726 -0.4333940772374316 0.0
