# vtk DataFile Version 3.0
LucasCarvalhoTCC Results
ASCII

DATASET POLYDATA
FIELD FieldData 1
TIME 1 1 double
0.8

POINTS 380 float
0.0 2.0 0.0
2.0 2.0 0.0
3.0 2.0 0.0
3.0 1.0 0.0
5.0 1.0 0.0
5.0 0.0 0.0
3.0 0.0 0.0
2.0 0.0 0.0
2.0 1.0 0.0
0.0 1.0 0.0
0.2643114543905713 2.0 0.0
0.5169795502969444 2.0 0.0
0.7585171880292413 2.0 0.0
0.9894145836600268 2.0 0.0
1.210140497826619 2.0 0.0
1.421143008568911 2.0 0.0
1.622850459538253 2.0 0.0
1.815672303789548 2.0 0.0
2.188552664328277 2.0 0.0
2.359329284173903 2.0 0.0
2.514005696104645 2.0 0.0
2.654099788331341 2.0 0.0
2.780986322989182 2.0 0.0
2.895910470953052 2.0 0.0
3.0 1.9 0.0
3.0 1.8 0.0
3.0 1.7 0.0
3.0 1.6 0.0
3.0 1.5 0.0
3.0 1.4 0.0
3.0 1.3 0.0
3.0 1.2 0.0
3.0 1.1 0.0
3.105031513416626 1.0 0.0
3.221094637894669 1.0 0.0
3.349348047908936 1.0 0.0
3.491072094154001 1.0 0.0
3.647681638607018 1.0 0.0
3.820740106959136 1.0 0.0
4.011975186625977 1.0 0.0
4.223295996958671 1.0 0.0
4.456812096249916 1.0 0.0
4.714854728122151 1.0 0.0
5.0 0.7500000000000003 0.0
5.0 0.5000000000000012 0.0
5.0 0.2500000000000011 0.0
4.735688545609428 0.0 0.0
4.483020449703056 0.0 0.0
4.241482811970759 0.0 0.0
4.010585416339973 0.0 0.0
3.789859502173381 0.0 0.0
3.578856991431089 0.0 0.0
3.377149540461747 0.0 0.0
3.184327696210452 0.0 0.0
2.811447335671723 0.0 0.0
2.640670715826097 0.0 0.0
2.485994303895355 0.0 0.0
2.345900211668659 0.0 0.0
2.219013677010818 0.0 0.0
2.104089529046948 0.0 0.0
2.0 0.1 0.0
2.0 0.2 0.0
2.0 0.3 0.0
2.0 0.4 0.0
2.0 0.5 0.0
2.0 0.6 0.0
2.0 0.7 0.0
2.0 0.8 0.0
2.0 0.9 0.0
1.894968486583374 1.0 0.0
1.77890536210533 1.0 0.0
1.650651952091063 1.0 0.0
1.508927905845999 1.0 0.0
1.352318361392982 1.0 0.0
1.179259893040864 1.0 0.0
0.9880248133740233 1.0 0.0
0.7767040030413299 1.0 0.0
0.5431879037500846 1.0 0.0
0.2851452718778493 1.0 0.0
0.0 1.25 0.0
0.0 1.499999999999999 0.0
0.0 1.749999999999999 0.0
2.426045913985508 1.348290599604586 0.0
2.562221387987337 0.6558377602558874 0.0
1.966703786708101 1.492474555319359 0.0
3.033486484223225 0.4973568340887861 0.0
2.371610747520728 0.97814425147097 0.0
2.648098402859118 1.648016516253387 0.0
2.351901597140882 0.3519834837466129 0.0
2.694321138879857 1.061432730999581 0.0
1.441644339445862 1.496646809257773 0.0
3.554831642064292 0.501744031268764 0.0
2.720742750697982 1.350625068836981 0.0
2.282037541072919 0.639419348257894 0.0
2.813390610951134 0.7911761792959446 0.0
2.310700631729327 1.679155452525512 0.0
2.688751528716965 0.3206838402855661 0.0
2.211165393176843 1.213708510063781 0.0
0.9449004170027906 1.496357611130017 0.0
4.05509958299721 0.5036423888699835 0.0
3.025501657200047 0.7528388163714679 0.0
1.714778657098197 1.300039655550584 0.0
1.958264922640818 1.245975101752485 0.0
2.206386339371814 0.8500000000000001 0.0
3.336706349465057 0.704398544338507 0.0
4.529565928894533 0.555233644424822 0.0
0.4704340711054673 1.444766355575178 0.0
2.186983355180128 1.461437746541105 0.0
2.553715879020142 0.8859594914241276 0.0
2.782212276375736 0.5474565156445963 0.0
2.500206140967324 1.148517546040804 0.0
2.803373162317882 1.783880361314082 0.0
2.196626837682118 0.2161196386859174 0.0
1.735623536927746 1.664129737658362 0.0
3.268802735993943 0.3358439745752063 0.0
2.799454045372581 1.51553500056848 0.0
2.18762015375897 0.4992029885790829 0.0
2.813478812948685 1.18678600527921 0.0
2.400994471757771 0.7612313552289275 0.0
2.405444563947088 0.5311203927463914 0.0
2.583195945356847 1.473216966241769 0.0
3.734210872783077 0.7260959952797862 0.0
1.256500988572085 1.265010492624376 0.0
2.938353069321001 0.2909212553641365 0.0
2.061245308362322 1.709221243241415 0.0
2.182240881432738 1.001025052084926 0.0
2.830214026212788 0.9796244234047695 0.0
2.49023894829247 1.787687811117195 0.0
2.50976105170753 0.2123121888828049 0.0
1.194806886820808 1.686899295332255 0.0
3.805193113179192 0.3131007046677451 0.0
2.655039231860651 1.208917360245127 0.0
1.493530449555064 1.231198576616718 0.0
2.345622594939228 1.152685186835846 0.0
2.41380980106708 1.521513100394759 0.0
2.58979513084283 0.4863225267637531 0.0
2.135472648094309 0.7246460081196311 0.0
2.912574128751924 0.660128736186259 0.0
2.866043013605144 1.353074765380587 0.0
0.6928324624395237 1.69170809873467 0.0
4.307167537560476 0.3082919012653306 0.0
2.071506740582853 1.128535871978767 0.0
0.6831902494895832 1.302725441792086 0.0
4.316809750510417 0.6972745582079137 0.0
2.85534466702333 1.667491236848871 0.0
2.141886244104996 0.336139391754002 0.0
1.447743165823209 1.773242752731258 0.0
3.554386585610856 0.224002072703283 0.0
2.96485662756902 0.8593908564801968 0.0
3.240425509636175 0.8099760775594669 0.0
2.088410584923666 1.339747073830609 0.0
3.277530767974837 0.4939020807639749 0.0
3.534313505233912 0.7935179117986669 0.0
2.546683861402325 1.011736398479819 0.0
2.664793655038503 0.758149595673951 0.0
2.7009922066801 0.9086021996324817 0.0
1.844652141496971 1.153158997353228 0.0
2.575910747861113 1.316876286520138 0.0
3.994328863599566 0.7454319923658932 0.0
1.005671136400434 1.254568007634107 0.0
1.722192091537185 1.482888323667831 0.0
2.644751416415203 1.850904811198953 0.0
2.355248583584797 0.1490951888010467 0.0
2.31560379269905 1.25706851182614 0.0
2.129697972466254 0.5864366202645266 0.0
2.417220568140766 0.6397160301847872 0.0
2.867945749403976 1.069821281672812 0.0
3.182303046124178 0.6739667261124369 0.0
4.702774994215813 0.2953677284017739 0.0
0.2972250057841874 1.704632271598226 0.0
2.90043748182062 0.4316738443013928 0.0
2.486081387366873 0.3514585853722887 0.0
2.513918612633127 1.648541414627711 0.0
2.086778258621772 1.563111332603502 0.0
4.025359850459486 0.2638518716814435 0.0
0.9746401495405139 1.736148128318556 0.0
3.116389458098145 0.2933651166122753 0.0
1.885410353788165 1.707062521230272 0.0
2.327134732627959 1.833634230002939 0.0
2.672865267372041 0.1663657699970617 0.0
1.675899428547673 1.15999616666306 0.0
1.858973331615206 1.373382723203102 0.0
2.860266039499884 1.862282581689995 0.0
2.139733960500116 0.1377174183100045 0.0
1.257473476073173 1.479081588926576 0.0
3.731624273377778 0.5208146070195914 0.0
2.115038607594509 0.9238947313642476 0.0
0.2734661728051435 1.270630989444945 0.0
4.726533827194856 0.7293690105550548 0.0
2.699965708650878 1.465007479364728 0.0
2.298365077320068 0.5341069340550768 0.0
2.510583000486659 0.7602856732279889 0.0
3.370667741214912 0.8392397884376295 0.0
3.067541604254986 0.8806352314757129 0.0
2.90073732483139 1.443475210354718 0.0
2.264071206758208 0.9501943312745662 0.0
2.278663096491763 0.7489636980394857 0.0
1.952511813454414 1.110576661474517 0.0
2.744352083917141 0.687787375233183 0.0
1.566252941493004 1.383661493752942 0.0
2.437660520624072 0.8703573012735125 0.0
2.904826075218911 1.261819176983655 0.0
2.305967018083784 1.391390767447104 0.0
2.105729326736999 0.8145314366030645 0.0
2.428967188976762 1.236966721617647 0.0
3.060475488407204 0.1442825789852263 0.0
1.934979199332455 1.852811714602595 0.0
2.095475260770118 0.4348597444661615 0.0
2.914777085426361 1.759093454264707 0.0
2.084827330449114 0.2414252069642749 0.0
2.207128288422204 1.315477221019454 0.0
2.658751426439581 0.5773232450959589 0.0
2.612380011409894 1.114144853433198 0.0
2.897371573983894 1.569769587751228 0.0
0.5001010519014215 1.226918930408543 0.0
4.499898948098578 0.7730810695914568 0.0
2.753086810589338 1.690362801865437 0.0
2.246793053318422 0.3097947118702842 0.0
3.391580469276819 0.5673489147038103 0.0
3.035026488699165 0.6179797538177514 0.0
2.449819864663089 1.055109427275025 0.0
2.27653308928065 1.054384468582349 0.0
2.794675693196835 1.418106589018447 0.0
2.778866980525137 1.083577784614141 0.0
2.244522876020972 0.1116738824400324 0.0
2.755477123979027 1.888326117559968 0.0
2.323887028942199 0.8604475039748537 0.0
2.204900210979926 1.747483509451062 0.0
2.794853185869193 0.2526222191943996 0.0
2.320767315286541 1.530441598510029 0.0
1.550828143561484 1.606851581022188 0.0
2.796593663741882 1.288013595743853 0.0
3.436143660897262 0.3940652474171653 0.0
2.682379445750112 0.4493639922429763 0.0
3.242313228541417 0.154845696987206 0.0
1.75965289115187 1.844031320058407 0.0
1.3642341383496 1.159631408929946 0.0
1.980047380836635 1.36362624976796 0.0
2.070303834520089 1.451946835577872 0.0
2.55866460451515 1.229901920133861 0.0
4.26844523535139 0.499131154814159 0.0
0.7315547646486098 1.500868845185841 0.0
2.716116351489881 1.570657861970705 0.0
2.283245236086922 0.4299499540566049 0.0
4.50573905238033 0.204273435313806 0.0
0.4942609476196695 1.795726564686194 0.0
3.605070352001925 0.644396355247622 0.0
3.171946621948212 0.9019117497969773 0.0
3.40309695214227 0.1789624633199048 0.0
1.59690304785773 1.821037536680094 0.0
4.776800700354217 0.5074282293075529 0.0
0.2231992996457826 1.492571770692447 0.0
1.293020597407515 1.839015256431498 0.0
3.706979402592485 0.1609847435685022 0.0
1.398281395597716 1.351857389185529 0.0
2.880181082677912 0.1378504756446906 0.0
2.119200639021148 1.861833157788504 0.0
2.408646939494887 0.2452196658480275 0.0
2.591353060505113 1.754780334151973 0.0
1.146570081566377 1.160946826906423 0.0
3.853429918433624 0.8390531730935771 0.0
2.920846657438631 1.149071660619678 0.0
2.101132283911678 1.226382957654413 0.0
2.903672483971366 0.7774662795474147 0.0
2.516386521935266 0.571665255016536 0.0
2.475412447847437 1.444413760085193 0.0
2.903041575637174 0.5510905120278109 0.0
3.666476299189054 0.8553176740217776 0.0
1.558137053653031 1.119389262041809 0.0
3.867595456948903 0.1475874639835382 0.0
1.132404543051097 1.852412536016462 0.0
2.635017655944937 0.9730281566682446 0.0
2.436667490139274 1.901171080200935 0.0
2.563332509860726 0.09882891979906516 0.0
2.091598337090247 1.040423151014485 0.0
0.8316881289508771 1.172977685150089 0.0
4.168311871049123 0.827022314849911 0.0
3.648565743761548 0.3681286963687066 0.0
1.355037313653319 1.636865536133179 0.0
2.58412781071005 1.576586299624529 0.0
2.41587218928995 0.4234137003754711 0.0
2.083716468691946 0.6634832154935376 0.0
1.843942294678346 1.256771801786488 0.0
[...]
POINT_DATA 380

VECTORS Velocity float
0.0000000000000000 0.0000000000000000 0.0
0.0000000000000000 0.0000000000000000 0.0
0.0000000000000000 0.0000000000000000 0.0
0.0000000000000000 0.0000000000000000 0.0
0.0000000000000000 0.0000000000000000 0.0
0.9181693627089303 -0.1307867634504208 0.0
0.0000000000000000 0.0000000000000000 0.0
0.0000000000000000 0.0000000000000000 0.0
0.0000000000000000 0.0000000000000000 0.0
0.0000000000000000 0.0000000000000000 0.0
0.0000000000000000 0.0000000000000000 0.0
0.0000000000000000 0.0000000000000000 0.0
0.0000000000000000 0.0000000000000000 0.0
0.0000000000000000 0.0000000000000000 0.0
0.0000000000000000 0.0000000000000000 0.0
0.0000000000000000 0.0000000000000000 0.0
0.0000000000000000 0.0000000000000000 0.0
0.0000000000000000 0.0000000000000000 0.0
0.0000000000000000 0.0000000000000000 0.0
0.0000000000000000 0.0000000000000000 0.0
0.0000000000000000 0.0000000000000000 0.0
0.0000000000000000 0.0000000000000000 0.0
0.0000000000000000 0.0000000000000000 0.0
0.0000000000000000 0.0000000000000000 0.0
0.0000000000000000 0.0000000000000000 0.0
0.0000000000000000 0.0000000000000000 0.0
0.0000000000000000 0.0000000000000000 0.0
0.0000000000000000 0.0000000000000000 0.0
0.0000000000000000 0.0000000000000000 0.0
0.0000000000000000 0.0000000000000000 0.0
0.0000000000000000 0.0000000000000000 0.0
0.0000000000000000 0.0000000000000000 0.0
0.0000000000000000 0.0000000000000000 0.0
0.0000000000000000 0.0000000000000000 0.0
0.0000000000000000 0.0000000000000000 0.0
0.0000000000000000 0.0000000000000000 0.0
0.0000000000000000 0.0000000000000000 0.0
0.0000000000000000 0.0000000000000000 0.0
0.0000000000000000 0.0000000000000000 0.0
0.0000000000000000 0.0000000000000000 0.0
0.0000000000000000 0.0000000000000000 0.0
0.0000000000000000 0.0000000000000000 0.0
0.0000000000000000 0.0000000000000000 0.0
1.1567791388903799 0.3492835952091661 0.0
0.7992922612595726 0.0426177523127412 0.0
1.1343889370994900 -0.3011879606346882 0.0
0.0000000000000000 0.0000000000000000 0.0
0.0000000000000000 0.0000000000000000 0.0
0.0000000000000000 0.0000000000000000 0.0
0.0000000000000000 0.0000000000000000 0.0
0.0000000000000000 0.0000000000000000 0.0
0.0000000000000000 0.0000000000000000 0.0
0.0000000000000000 0.0000000000000000 0.0
0.0000000000000000 0.0000000000000000 0.0
0.0000000000000000 0.0000000000000000 0.0
0.0000000000000000 0.0000000000000000 0.0
0.0000000000000000 0.0000000000000000 0.0
0.0000000000000000 0.0000000000000000 0.0
0.0000000000000000 0.0000000000000000 0.0
0.0000000000000000 0.0000000000000000 0.0
0.0000000000000000 0.0000000000000000 0.0
0.0000000000000000 0.0000000000000000 0.0
0.0000000000000000 0.0000000000000000 0.0
0.0000000000000000 0.0000000000000000 0.0
0.0000000000000000 0.0000000000000000 0.0
0.0000000000000000 0.0000000000000000 0.0
0.0000000000000000 0.0000000000000000 0.0
0.0000000000000000 0.0000000000000000 0.0
0.0000000000000000 0.0000000000000000 0.0
0.0000000000000000 0.0000000000000000 0.0
0.0000000000000000 0.0000000000000000 0.0
0.0000000000000000 0.0000000000000000 0.0
0.0000000000000000 0.0000000000000000 0.0
0.0000000000000000 0.0000000000000000 0.0
0.0000000000000000 0.0000000000000000 0.0
0.0000000000000000 0.0000000000000000 0.0
0.0000000000000000 0.0000000000000000 0.0
0.0000000000000000 0.0000000000000000 0.0
0.0000000000000000 0.0000000000000000 0.0
1.0000000000000000 0.0000000000000000 0.0
1.0000000000000000 0.0000000000000000 0.0
1.0000000000000000 0.0000000000000000 0.0
0.7422700283671912 -0.6087325540456405 0.0
0.6758736069681536 -0.6244084432680351 0.0
1.2992337382666490 -0.2470743483352523 0.0
1.2417322645653193 -0.2607796643704914 0.0
0.5277166709324788 -0.9698782088621776 0.0
0.4299146367522823 -0.1775056294586645 0.0
0.3998418167940422 -0.1880722030751468 0.0
0.4969840548774212 -1.0190662374397712 0.0
1.4947244696433624 -0.0837878557836867 0.0
1.5086768061811364 -0.0946931364609619 0.0
0.2891888203453272 -0.5935474646295139 0.0
0.2782931246753767 -0.5903297911904616 0.0
1.0325255568897396 -0.9401660442473815 0.0
0.7802289769048285 -0.1672841548513787 0.0
0.7679449704637424 -0.1690113317783564 0.0
1.0354413548247385 -0.8438122460258359 0.0
1.5732572016069504 -0.0090492711631979 0.0
1.5701748427085900 0.0004670514895862 0.0
1.4834211874032068 -0.4213667500698225 0.0
1.4434225945111570 -0.1452896297397971 0.0
1.4691901488942236 -0.3852912641338365 0.0
0.1947974751175779 -1.0095473916453732 0.0
1.4605534529983830 -0.1154064455253179 0.0
1.5680874290536515 0.0136181775118587 0.0
1.5214744115030725 0.0331040236772547 0.0
1.0512082975299106 -0.4164862188471741 0.0
0.5964935900440924 -0.8646802417971196 0.0
0.9768882946024666 -0.3875945400783515 0.0
0.5840835426036547 -0.8609085296002857 0.0
0.2497206459059729 -0.0342036818138451 0.0
0.2193721788950411 -0.0452899162727155 0.0
1.1930776638999050 -0.0630921480367598 0.0
1.1757818635765995 -0.0639977137382863 0.0
0.1948144593119325 -0.3383943732620923 0.0
0.1542947264231897 -0.3210261367027022 0.0
0.0974862729772485 -0.8632343000633350 0.0
0.4508490108097504 -0.7562974011497989 0.0
0.4638265033487594 -0.4471466693107481 0.0
0.5039114049122446 -0.4208257670776764 0.0
1.3685541425602890 -0.0333037409122660 0.0
1.2922876184781706 -0.0935276629157855 0.0
0.9101783610389134 -0.1219485252054857 0.0
0.9347682852939323 -0.1116749518294244 0.0
0.5688241883165567 -1.2319120813123909 0.0
0.5895332733185160 -1.3058447861721334 0.0
0.4607807724601483 -0.0180000927020294 0.0
0.4450859347630420 -0.0239789007231095 0.0
1.2868666925552579 0.0282484750490984 0.0
1.2892682740301296 0.0291317072126454 0.0
0.4049156238533137 -0.7978595711492118 0.0
1.2656118579130158 -0.0273538980910977 0.0
0.7566204844416609 -0.8792862940573788 0.0
0.7045807704787772 -0.3670558023808899 0.0
0.7183809927417526 -0.3979658375395332 0.0
-0.0799875004063029 -0.5544694105063218 0.0
1.2972614491296426 -0.5563519457721390 0.0
0.0526199088762806 -0.4863043718188746 0.0
1.3401319694202354 0.0126259946976005 0.0
1.3409833931472315 0.0217970071643032 0.0
1.2846037837374196 -0.9479341140768811 0.0
1.3760355981435477 -0.0391450480942294 0.0
1.3740180454034407 -0.0513881267832054 0.0
0.2076878639715747 -0.1045327650111677 0.0
0.1798034732030683 -0.1159390893107986 0.0
0.8333703730386760 -0.0067768423520280 0.0
0.8362224798809220 -0.0136161514227504 0.0
1.4093973596983469 -0.7256066527931154 0.0
1.3050064908336301 -0.1396116164431744 0.0
1.2429339151389753 -0.5364741379263858 0.0
1.4123276448187598 -0.0831521678388004 0.0
1.2267800210618764 -0.0765560830870175 0.0
0.5680512005553872 -0.9063305238515951 0.0
0.7845376980687446 -0.7396813184054800 0.0
0.7003081982300223 -1.0199526644545169 0.0
1.2825253226000064 -0.1056340318179649 0.0
0.5135633467249745 -0.6434673997485890 0.0
1.0629969981832730 -0.0469427242395076 0.0
1.0664013171673876 -0.0446878624636364 0.0
1.4454526235505334 -0.0949611957376997 0.0
0.2097220068722869 -0.0401469304288392 0.0
0.1958167399058638 -0.0417904525571030 0.0
0.8656505282999167 -0.7307534262564340 0.0
0.0590695670470922 -0.2882666746330775 0.0
0.4629453085890987 -0.5757670826951012 0.0
0.1399214915109894 -1.0580832878662463 0.0
1.4600033601016518 -0.2259268027946842 0.0
1.2132812290291559 -0.2117998652120265 0.0
1.2019260062069221 -0.1957276547260364 0.0
1.0781143634797941 -0.2655525499369429 0.0
0.5474363845365814 -0.1927666966530954 0.0
0.5709749460073341 -0.1792157778660136 0.0
1.1299109844473536 -0.2673172884227619 0.0
1.0543622637122751 -0.0144236607687163 0.0
1.0506276292944607 -0.0162645214411289 0.0
1.0354373028991739 -0.0903574339097962 0.0
1.0546297963577762 -0.0880841722010074 0.0
0.3736014044548814 -0.0489920065206215 0.0
0.3680935195859910 -0.0496392300891165 0.0
0.9215315576318488 -0.0570024546264996 0.0
1.4067658140084798 -0.2041266431017981 0.0
0.1863524899068857 0.0252125468112689 0.0
0.1583211565773716 0.0157086970394340 0.0
1.4895853518764890 -0.0889390334314794 0.0
1.5100311447028296 -0.1076971213912827 0.0
0.0423894869492233 -0.7588090986931695 0.0
1.1002349239178593 0.2223786486727713 0.0
1.1042601020136249 0.2213243064943102 0.0
0.3236916927926956 -0.4292222698976644 0.0
0.2981329154109559 -0.4189831232663357 0.0
0.5837075336113312 -0.7606423031331784 0.0
0.9736997934607362 -0.0729300240180197 0.0
1.0229257330410313 -0.2377673925445183 0.0
0.0687632748194466 -0.2378689425764627 0.0
0.4350327871874722 -1.1126976827694259 0.0
0.2333634975406318 -0.7961611346145904 0.0
0.9939735087529983 -0.1544641873172551 0.0
0.9337170067327997 -0.6585207211260526 0.0
1.4755006609210404 -0.0850330084558879 0.0
0.5120610277035534 -0.8639813453447662 0.0
-0.0493282239845013 -0.4361751544682691 0.0
0.8922471722840727 -0.5309950778982877 0.0
-0.0231193974840529 -0.4743072828710427 0.0
0.6773304578167070 -0.7745490341742450 0.0
0.5054922461511366 -0.0179572181629499 0.0
0.5055780538464250 -0.0139504594314416 0.0
0.1192240724830762 -0.1403609089278365 0.0
0.1844134151716939 -0.0082952629457646 0.0
0.1552783554263249 -0.0158386050053988 0.0
1.0774729583648512 -0.6757536535887847 0.0
0.8095658097455616 -0.5100950055988114 0.0
0.5156092565290933 -0.8904625072463436 0.0
0.1106214530488707 -0.1400996034907956 0.0
0.8779300121011960 0.1574135077046245 0.0
0.8559438109694969 0.1273917165021508 0.0
0.3240032072972184 -0.1408830657226451 0.0
0.2956869750124371 -0.1524530635528663 0.0
1.5026539798882621 -0.1067689830317623 0.0
1.3790964884438797 -0.3449723901673431 0.0
0.5855406506782287 -0.9162362697386851 0.0
0.6660786073666924 -1.0780469370508308 0.0
0.1848859605801920 -0.4400496453138540 0.0
0.3571102671170083 -1.1149681786332601 0.0
0.1290111955568884 -0.0292316046594679 0.0
0.1442795183984776 -0.0272024200606288 0.0
0.4147640956148819 -0.9453481801838922 0.0
0.7681534085966462 -0.1272320561611072 0.0
0.7539797985349784 -0.1286531730749177 0.0
0.8737258750639737 -0.3428081296305389 0.0
1.3327877957700724 -0.0332394593067349 0.0
0.1485131198079886 -0.6394144988402954 0.0
1.3060251025163012 -0.0368318477951479 0.0
0.8594269402045904 -0.3375656101559217 0.0
0.5849559665912710 -0.0267183757358868 0.0
0.5825832003974513 -0.0286962023855569 0.0
0.9114961857082178 -0.0347759905440309 0.0
1.3533313054680416 -0.3704337403497536 0.0
1.2278736334908158 -0.3739506717097654 0.0
0.5109826672662059 -0.7665423746674320 0.0
1.5622863383418530 -0.0401090495984514 0.0
1.5556733378566250 -0.0368914642553370 0.0
0.3291605402668082 -0.2639120771334088 0.0
0.2981869439502828 -0.2792509619368295 0.0
0.7861950688728434 -0.1325006778985272 0.0
0.8072428721351287 -0.1517293687167029 0.0
1.4817025612852415 -0.0877505439695741 0.0
0.6656352962032615 -0.0944537349450501 0.0
0.7051132179147119 -0.0718132383034514 0.0
0.7074623041184094 -0.0779204037067420 0.0
1.2558314394859205 0.0457707954748124 0.0
1.2081683163132260 0.0393835641277125 0.0
0.6765880493640055 0.0404645273082963 0.0
0.6833578056618788 0.0406041781847501 0.0
1.4165496567020723 -0.0737996944666257 0.0
0.4051347179887485 -0.0575021521745210 0.0
0.4082647260679611 -0.0561447596216824 0.0
0.4044254426393669 -0.1156624302347132 0.0
0.4252931605966204 -0.1102623611063711 0.0
0.7425442124445601 0.0563548846332919 0.0
0.7456476395742792 0.0964206474170852 0.0
-0.1129505756452878 -0.5128715766818325 0.0
1.2796076754009500 -0.7395902871714264 0.0
1.2896380042255426 -0.8005010038883605 0.0
0.6026378397460033 -0.5111527660163763 0.0
0.6551693687277350 -0.4467433510423136 0.0
1.1716751339434144 -0.3929252727103872 0.0
0.6398325682237119 0.0143117476409679 0.0
0.6829670725779674 -0.0427520946242004 0.0
0.5705969849267361 -0.1030427252127049 0.0
0.5699660341206730 -0.1015774412122604 0.0
0.5887581401559089 -0.9710179971284394 0.0
0.1652243687968366 -0.0274219763740754 0.0
0.1595653658283747 -0.0284066088960167 0.0
0.6596418220151444 -1.0366968956584006 0.0
0.6900913542689775 -0.0947752560170127 0.0
0.6884967947318630 -0.1009997596882277 0.0
1.3170902098932549 -0.1016778187881233 0.0
1.3176523886859486 -0.0966463607280798 0.0
0.5152963236035834 -0.2731827136085274 0.0
0.4740692367191334 -0.2839336286294850 0.0
-0.0698419459457052 -0.2654361506166671 0.0
1.3723527067202173 -0.2218743854129269 0.0
0.6761543066229998 -1.1379283056471767 0.0
0.1592182508839984 -0.4658005666379216 0.0
0.4173119354743687 -0.5558246355216983 0.0
1.0295157653743372 -1.1005192566796220 0.0
0.8311059998030018 -1.1173278294682836 0.0
1.4642658314281431 -0.0623073246432689 0.0
1.4663435514736636 -0.0880851593580688 0.0
0.5802862131296728 -1.1160402965918004 0.0
0.9849312225084408 -0.2274538003669073 0.0
0.9587045403028598 -0.2053761669473696 0.0
0.6544515240640295 -0.1399269031144655 0.0
0.6437096076251659 -0.1491560000818171 0.0
1.4831837606383842 -0.1074284387286754 0.0
0.8489763011173825 -0.9109066482706684 0.0
0.3555208259822368 -0.9296291098489393 0.0
1.1781034917103155 -0.1680512788153344 0.0
1.5393231426046952 -0.0696707729888438 0.0
1.5476620832873260 -0.0737620790839885 0.0
1.2055403147234132 -0.1523147643204568 0.0
0.1871609764224784 -0.0024724319861603 0.0
0.1965752721064745 0.0003678021725421 0.0
0.5030635124043893 0.0677456616309237 0.0
1.2858382307940552 -0.1266243029941377 0.0
1.3478805935136882 -0.0314687313896060 0.0
0.4015095713551157 -0.6896057982909046 0.0
0.2472122693763475 -0.2141113806406775 0.0
0.2146554032928909 -0.2177568537674686 0.0
0.3402178609397442 -0.0550250899104730 0.0
0.3139174957502208 -0.0637487662325311 0.0
0.3804192406600450 -0.5421216041383107 0.0
-0.1044082179882965 -0.2038772908922414 0.0
0.7556863620675989 -0.6690408579701580 0.0
0.5407013326521986 0.0341543671047579 0.0
0.5261278127153995 0.0193401960602315 0.0
1.4660880754319654 -0.0376260345990194 0.0
1.4637419943720629 -0.0468256484101891 0.0
0.8433562374986672 -1.0082277428640340 0.0
1.3770033075395285 -0.2062699909764935 0.0
0.4903760361555291 -0.0642339312707906 0.0
0.1562082154189703 -0.0506784268851143 0.0
0.1258580816822746 -0.0533913025423361 0.0
0.3586184835094985 -0.6796006175473087 0.0
0.0572954788887930 -0.1717128535212160 0.0
0.6144720469325557 -0.6793624147756893 0.0
1.3235724448459705 -0.1216363551005058 0.0
0.6227634471323005 -0.3290674129254049 0.0
0.5931495323599960 -0.3557557098960406 0.0
0.5550174871503096 -0.9021633538950958 0.0
0.6884054345147989 0.0796490186938005 0.0
0.6877043263963145 0.0820124718199487 0.0
0.6775015593484892 -0.8913743784066261 0.0
0.0765514477717389 -0.7663869462353110 0.0
0.1020752445763238 -0.5696630543416272 0.0
-0.0184430994576664 -0.1654155799783579 0.0
0.8463508300692468 0.0622921260793404 0.0
0.8128203741200346 0.0900358955887644 0.0
0.8349923595809422 -0.0523581965059010 0.0
0.8065860704222358 -0.0711165331197868 0.0
0.2821748435371868 -0.7836753269525970 0.0
0.8494396983016724 -0.2024350385453384 0.0
0.6663252248913378 -0.7681041547625411 0.0
1.1797485141524946 -0.7157227354573279 0.0
0.6440493187278299 0.0752358344403675 0.0
1.4649817038549835 -0.0121059796226914 0.0
1.4696863854328042 -0.0083974061906014 0.0
1.0817389035189222 -1.1724703004213648 0.0
0.6343941817522190 -0.8934001315939044 0.0
1.4201628457730548 -0.2307117290475515 0.0
0.6252091577508119 -0.9755006327048800 0.0
-0.1283353996291042 -0.6669096096519360 0.0
1.2900072461820549 -0.1467941361101353 0.0
0.3436286583523415 -1.1662632750642641 0.0
1.4671248720382231 -0.1372186817218625 0.0
0.4554520437394524 -0.0109383654293095 0.0
1.5522438709982407 -0.0671723050048759 0.0
1.5276515710895202 -0.0855458452400164 0.0
0.0863788853441464 0.0202286519443741 0.0
0.1065787926210226 0.0248449482930738 0.0
0.5723564403992036 0.0426865322533251 0.0
0.4495459282795793 -0.0803122780928634 0.0
0.0533676168155356 0.0037535499484238 0.0
0.0658147133558257 0.0068940083124428 0.0
0.5742436762862004 -0.0425305947328076 0.0
0.5650491263506172 -0.6707479404587834 0.0
0.5753403668749280 -0.0309640356444938 0.0
0.5714025231670530 -0.0240344770361152 0.0
0.7184190375702469 -0.2544622341872304 0.0
0.7486149729527144 -0.2362877928221671 0.0
0.5518149253196742 -0.5660159569946134 0.0
0.3821700825328271 -0.3433930904667576 0.0
0.4173526285173983 -0.3463927833727958 0.0
0.1689184469848546 0.0313793668890150 0.0
0.1386658930458985 0.0253567162309639 0.0
1.5199353815320646 -0.5815942266147742 0.0
1.0961774163956151 -0.5650287832635593 0.0
0.7736071254609873 -0.4758247917232372 0.0
0.9732276308660819 -0.5783068381361320 0.0
