# vtk DataFile Version 3.0
LucasCarvalhoTCC Results
ASCII

DATASET POLYDATA
FIELD FieldData 1
TIME 1 1 double
2.3000000000000003

POINTS 380 float
0.0 2.0 0.0
2.0 2.0 0.0
3.0 2.0 0.0
3.0 1.0 0.0
5.0 1.0 0.0
5.0 0.0 0.0
3.0 0.0 0.0
2.0 0.0 0.0
2.0 1.0 0.0
0.0 1.0 0.0
0.2643114543905713 2.0 0.0
0.5169795502969444 2.0 0.0
0.7585171880292413 2.0 0.0
0.9894145836600268 2.0 0.0
1.210140497826619 2.0 0.0
1.421143008568911 2.0 0.0
1.622850459538253 2.0 0.0
1.815672303789548 2.0 0.0
2.188552664328277 2.0 0.0
2.359329284173903 2.0 0.0
2.514005696104645 2.0 0.0
2.654099788331341 2.0 0.0
2.780986322989182 2.0 0.0
2.895910470953052 2.0 0.0
3.0 1.9 0.0
3.0 1.8 0.0
3.0 1.7 0.0
3.0 1.6 0.0
3.0 1.5 0.0
3.0 1.4 0.0
3.0 1.3 0.0
3.0 1.2 0.0
3.0 1.1 0.0
3.105031513416626 1.0 0.0
3.221094637894669 1.0 0.0
3.349348047908936 1.0 0.0
3.491072094154001 1.0 0.0
3.647681638607018 1.0 0.0
3.820740106959136 1.0 0.0
4.011975186625977 1.0 0.0
4.223295996958671 1.0 0.0
4.456812096249916 1.0 0.0
4.714854728122151 1.0 0.0
5.0 0.7500000000000003 0.0
5.0 0.5000000000000012 0.0
5.0 0.2500000000000011 0.0
4.735688545609428 0.0 0.0
4.483020449703056 0.0 0.0
4.241482811970759 0.0 0.0
4.010585416339973 0.0 0.0
3.789859502173381 0.0 0.0
3.578856991431089 0.0 0.0
3.377149540461747 0.0 0.0
3.184327696210452 0.0 0.0
2.811447335671723 0.0 0.0
2.640670715826097 0.0 0.0
2.485994303895355 0.0 0.0
2.345900211668659 0.0 0.0
2.219013677010818 0.0 0.0
2.104089529046948 0.0 0.0
2.0 0.1 0.0
2.0 0.2 0.0
2.0 0.3 0.0
2.0 0.4 0.0
2.0 0.5 0.0
2.0 0.6 0.0
2.0 0.7 0.0
2.0 0.8 0.0
2.0 0.9 0.0
1.894968486583374 1.0 0.0
1.77890536210533 1.0 0.0
1.650651952091063 1.0 0.0
1.508927905845999 1.0 0.0
1.352318361392982 1.0 0.0
1.179259893040864 1.0 0.0
0.9880248133740233 1.0 0.0
0.7767040030413299 1.0 0.0
0.5431879037500846 1.0 0.0
0.2851452718778493 1.0 0.0
0.0 1.25 0.0
0.0 1.499999999999999 0.0
0.0 1.749999999999999 0.0
2.426045913985508 1.348290599604586 0.0
2.562221387987337 0.6558377602558874 0.0
1.966703786708101 1.492474555319359 0.0
3.033486484223225 0.4973568340887861 0.0
2.371610747520728 0.97814425147097 0.0
2.648098402859118 1.648016516253387 0.0
2.351901597140882 0.3519834837466129 0.0
2.694321138879857 1.061432730999581 0.0
1.441644339445862 1.496646809257773 0.0
3.554831642064292 0.501744031268764 0.0
2.720742750697982 1.350625068836981 0.0
2.282037541072919 0.639419348257894 0.0
2.813390610951134 0.7911761792959446 0.0
2.310700631729327 1.679155452525512 0.0
2.688751528716965 0.3206838402855661 0.0
2.211165393176843 1.213708510063781 0.0
0.9449004170027906 1.496357611130017 0.0
4.05509958299721 0.5036423888699835 0.0
3.025501657200047 0.7528388163714679 0.0
1.714778657098197 1.300039655550584 0.0
1.958264922640818 1.245975101752485 0.0
2.206386339371814 0.8500000000000001 0.0
3.336706349465057 0.704398544338507 0.0
4.529565928894533 0.555233644424822 0.0
0.4704340711054673 1.444766355575178 0.0
2.186983355180128 1.461437746541105 0.0
2.553715879020142 0.8859594914241276 0.0
2.782212276375736 0.5474565156445963 0.0
2.500206140967324 1.148517546040804 0.0
2.803373162317882 1.783880361314082 0.0
2.196626837682118 0.2161196386859174 0.0
1.735623536927746 1.664129737658362 0.0
3.268802735993943 0.3358439745752063 0.0
2.799454045372581 1.51553500056848 0.0
2.18762015375897 0.4992029885790829 0.0
2.813478812948685 1.18678600527921 0.0
2.400994471757771 0.7612313552289275 0.0
2.405444563947088 0.5311203927463914 0.0
2.583195945356847 1.473216966241769 0.0
3.734210872783077 0.7260959952797862 0.0
1.256500988572085 1.265010492624376 0.0
2.938353069321001 0.2909212553641365 0.0
2.061245308362322 1.709221243241415 0.0
2.182240881432738 1.001025052084926 0.0
2.830214026212788 0.9796244234047695 0.0
2.49023894829247 1.787687811117195 0.0
2.50976105170753 0.2123121888828049 0.0
1.194806886820808 1.686899295332255 0.0
3.805193113179192 0.3131007046677451 0.0
2.655039231860651 1.208917360245127 0.0
1.493530449555064 1.231198576616718 0.0
2.345622594939228 1.152685186835846 0.0
2.41380980106708 1.521513100394759 0.0
2.58979513084283 0.4863225267637531 0.0
2.135472648094309 0.7246460081196311 0.0
2.912574128751924 0.660128736186259 0.0
2.866043013605144 1.353074765380587 0.0
0.6928324624395237 1.69170809873467 0.0
4.307167537560476 0.3082919012653306 0.0
2.071506740582853 1.128535871978767 0.0
0.6831902494895832 1.302725441792086 0.0
4.316809750510417 0.6972745582079137 0.0
2.85534466702333 1.667491236848871 0.0
2.141886244104996 0.336139391754002 0.0
1.447743165823209 1.773242752731258 0.0
3.554386585610856 0.224002072703283 0.0
2.96485662756902 0.8593908564801968 0.0
3.240425509636175 0.8099760775594669 0.0
2.088410584923666 1.339747073830609 0.0
3.277530767974837 0.4939020807639749 0.0
3.534313505233912 0.7935179117986669 0.0
2.546683861402325 1.011736398479819 0.0
2.664793655038503 0.758149595673951 0.0
2.7009922066801 0.9086021996324817 0.0
1.844652141496971 1.153158997353228 0.0
2.575910747861113 1.316876286520138 0.0
3.994328863599566 0.7454319923658932 0.0
1.005671136400434 1.254568007634107 0.0
1.722192091537185 1.482888323667831 0.0
2.644751416415203 1.850904811198953 0.0
2.355248583584797 0.1490951888010467 0.0
2.31560379269905 1.25706851182614 0.0
2.129697972466254 0.5864366202645266 0.0
2.417220568140766 0.6397160301847872 0.0
2.867945749403976 1.069821281672812 0.0
3.182303046124178 0.6739667261124369 0.0
4.702774994215813 0.2953677284017739 0.0
0.2972250057841874 1.704632271598226 0.0
2.90043748182062 0.4316738443013928 0.0
2.486081387366873 0.3514585853722887 0.0
2.513918612633127 1.648541414627711 0.0
2.086778258621772 1.563111332603502 0.0
4.025359850459486 0.2638518716814435 0.0
0.9746401495405139 1.736148128318556 0.0
3.116389458098145 0.2933651166122753 0.0
1.885410353788165 1.707062521230272 0.0
2.327134732627959 1.833634230002939 0.0
2.672865267372041 0.1663657699970617 0.0
1.675899428547673 1.15999616666306 0.0
1.858973331615206 1.373382723203102 0.0
2.860266039499884 1.862282581689995 0.0
2.139733960500116 0.1377174183100045 0.0
1.257473476073173 1.479081588926576 0.0
3.731624273377778 0.5208146070195914 0.0
2.115038607594509 0.9238947313642476 0.0
0.2734661728051435 1.270630989444945 0.0
4.726533827194856 0.7293690105550548 0.0
2.699965708650878 1.465007479364728 0.0
2.298365077320068 0.5341069340550768 0.0
2.510583000486659 0.7602856732279889 0.0
3.370667741214912 0.8392397884376295 0.0
3.067541604254986 0.8806352314757129 0.0
2.90073732483139 1.443475210354718 0.0
2.264071206758208 0.9501943312745662 0.0
2.278663096491763 0.7489636980394857 0.0
1.952511813454414 1.110576661474517 0.0
2.744352083917141 0.687787375233183 0.0
1.566252941493004 1.383661493752942 0.0
2.437660520624072 0.8703573012735125 0.0
2.904826075218911 1.261819176983655 0.0
2.305967018083784 1.391390767447104 0.0
2.105729326736999 0.8145314366030645 0.0
2.428967188976762 1.236966721617647 0.0
3.060475488407204 0.1442825789852263 0.0
1.934979199332455 1.852811714602595 0.0
2.095475260770118 0.4348597444661615 0.0
2.914777085426361 1.759093454264707 0.0
2.084827330449114 0.2414252069642749 0.0
2.207128288422204 1.315477221019454 0.0
2.658751426439581 0.5773232450959589 0.0
2.612380011409894 1.114144853433198 0.0
2.897371573983894 1.569769587751228 0.0
0.5001010519014215 1.226918930408543 0.0
4.499898948098578 0.7730810695914568 0.0
2.753086810589338 1.690362801865437 0.0
2.246793053318422 0.3097947118702842 0.0
3.391580469276819 0.5673489147038103 0.0
3.035026488699165 0.6179797538177514 0.0
2.449819864663089 1.055109427275025 0.0
2.27653308928065 1.054384468582349 0.0
2.794675693196835 1.418106589018447 0.0
2.778866980525137 1.083577784614141 0.0
2.244522876020972 0.1116738824400324 0.0
2.755477123979027 1.888326117559968 0.0
2.323887028942199 0.8604475039748537 0.0
2.204900210979926 1.747483509451062 0.0
2.794853185869193 0.2526222191943996 0.0
2.320767315286541 1.530441598510029 0.0
1.550828143561484 1.606851581022188 0.0
2.796593663741882 1.288013595743853 0.0
3.436143660897262 0.3940652474171653 0.0
2.682379445750112 0.4493639922429763 0.0
3.242313228541417 0.154845696987206 0.0
1.75965289115187 1.844031320058407 0.0
1.3642341383496 1.159631408929946 0.0
1.980047380836635 1.36362624976796 0.0
2.070303834520089 1.451946835577872 0.0
2.55866460451515 1.229901920133861 0.0
4.26844523535139 0.499131154814159 0.0
0.7315547646486098 1.500868845185841 0.0
2.716116351489881 1.570657861970705 0.0
2.283245236086922 0.4299499540566049 0.0
4.50573905238033 0.204273435313806 0.0
0.4942609476196695 1.795726564686194 0.0
3.605070352001925 0.644396355247622 0.0
3.171946621948212 0.9019117497969773 0.0
3.40309695214227 0.1789624633199048 0.0
1.59690304785773 1.821037536680094 0.0
4.776800700354217 0.5074282293075529 0.0
0.2231992996457826 1.492571770692447 0.0
1.293020597407515 1.839015256431498 0.0
3.706979402592485 0.1609847435685022 0.0
1.398281395597716 1.351857389185529 0.0
2.880181082677912 0.1378504756446906 0.0
2.119200639021148 1.861833157788504 0.0
2.408646939494887 0.2452196658480275 0.0
2.591353060505113 1.754780334151973 0.0
1.146570081566377 1.160946826906423 0.0
3.853429918433624 0.8390531730935771 0.0
2.920846657438631 1.149071660619678 0.0
2.101132283911678 1.226382957654413 0.0
2.903672483971366 0.7774662795474147 0.0
2.516386521935266 0.571665255016536 0.0
2.475412447847437 1.444413760085193 0.0
2.903041575637174 0.5510905120278109 0.0
3.666476299189054 0.8553176740217776 0.0
1.558137053653031 1.119389262041809 0.0
3.867595456948903 0.1475874639835382 0.0
1.132404543051097 1.852412536016462 0.0
2.635017655944937 0.9730281566682446 0.0
2.436667490139274 1.901171080200935 0.0
2.563332509860726 0.09882891979906516 0.0
2.091598337090247 1.040423151014485 0.0
0.8316881289508771 1.172977685150089 0.0
4.168311871049123 0.827022314849911 0.0
3.648565743761548 0.3681286963687066 0.0
1.355037313653319 1.636865536133179 0.0
2.58412781071005 1.576586299624529 0.0
2.41587218928995 0.4234137003754711 0.0
2.083716468691946 0.6634832154935376 0.0
1.843942294678346 1.256771801786488 0.0
[...]
POINT_DATA 380

VECTORS Velocity float
0.0000000000000000 0.0000000000000000 0.0
0.0000000000000000 0.0000000000000000 0.0
0.0000000000000000 0.0000000000000000 0.0
0.0000000000000000 0.0000000000000000 0.0
0.0000000000000000 0.0000000000000000 0.0
0.9186861525577678 -0.1330082311050664 0.0
0.0000000000000000 0.0000000000000000 0.0
0.0000000000000000 0.0000000000000000 0.0
0.0000000000000000 0.0000000000000000 0.0
0.0000000000000000 0.0000000000000000 0.0
0.0000000000000000 0.0000000000000000 0.0
0.0000000000000000 0.0000000000000000 0.0
0.0000000000000000 0.0000000000000000 0.0
0.0000000000000000 0.0000000000000000 0.0
0.0000000000000000 0.0000000000000000 0.0
0.0000000000000000 0.0000000000000000 0.0
0.0000000000000000 0.0000000000000000 0.0
0.0000000000000000 0.0000000000000000 0.0
0.0000000000000000 0.0000000000000000 0.0
0.0000000000000000 0.0000000000000000 0.0
0.0000000000000000 0.0000000000000000 0.0
0.0000000000000000 0.0000000000000000 0.0
0.0000000000000000 0.0000000000000000 0.0
0.0000000000000000 0.0000000000000000 0.0
0.0000000000000000 0.0000000000000000 0.0
0.0000000000000000 0.0000000000000000 0.0
0.0000000000000000 0.0000000000000000 0.0
0.0000000000000000 0.0000000000000000 0.0
0.0000000000000000 0.0000000000000000 0.0
0.0000000000000000 0.0000000000000000 0.0
0.0000000000000000 0.0000000000000000 0.0
0.0000000000000000 0.0000000000000000 0.0
0.0000000000000000 0.0000000000000000 0.0
0.0000000000000000 0.0000000000000000 0.0
0.0000000000000000 0.0000000000000000 0.0
0.0000000000000000 0.0000000000000000 0.0
0.0000000000000000 0.0000000000000000 0.0
0.0000000000000000 0.0000000000000000 0.0
0.0000000000000000 0.0000000000000000 0.0
0.0000000000000000 0.0000000000000000 0.0
0.0000000000000000 0.0000000000000000 0.0
0.0000000000000000 0.0000000000000000 0.0
0.0000000000000000 0.0000000000000000 0.0
1.1553301422906366 0.3635937367668400 0.0
0.7957457082525399 0.0623270517318586 0.0
1.1394440067188050 -0.2971223155651368 0.0
0.0000000000000000 0.0000000000000000 0.0
0.0000000000000000 0.0000000000000000 0.0
0.0000000000000000 0.0000000000000000 0.0
0.0000000000000000 0.0000000000000000 0.0
0.0000000000000000 0.0000000000000000 0.0
0.0000000000000000 0.0000000000000000 0.0
0.0000000000000000 0.0000000000000000 0.0
0.0000000000000000 0.0000000000000000 0.0
0.0000000000000000 0.0000000000000000 0.0
0.0000000000000000 0.0000000000000000 0.0
0.0000000000000000 0.0000000000000000 0.0
0.0000000000000000 0.0000000000000000 0.0
0.0000000000000000 0.0000000000000000 0.0
0.0000000000000000 0.0000000000000000 0.0
0.0000000000000000 0.0000000000000000 0.0
0.0000000000000000 0.0000000000000000 0.0
0.0000000000000000 0.0000000000000000 0.0
0.0000000000000000 0.0000000000000000 0.0
0.0000000000000000 0.0000000000000000 0.0
0.0000000000000000 0.0000000000000000 0.0
0.0000000000000000 0.0000000000000000 0.0
0.0000000000000000 0.0000000000000000 0.0
0.0000000000000000 0.0000000000000000 0.0
0.0000000000000000 0.0000000000000000 0.0
0.0000000000000000 0.0000000000000000 0.0
0.0000000000000000 0.0000000000000000 0.0
0.0000000000000000 0.0000000000000000 0.0
0.0000000000000000 0.0000000000000000 0.0
0.0000000000000000 0.0000000000000000 0.0
0.0000000000000000 0.0000000000000000 0.0
0.0000000000000000 0.0000000000000000 0.0
0.0000000000000000 0.0000000000000000 0.0
0.0000000000000000 0.0000000000000000 0.0
1.0000000000000000 0.0000000000000000 0.0
1.0000000000000000 0.0000000000000000 0.0
1.0000000000000000 0.0000000000000000 0.0
0.8658176615340090 -0.7492524701247872 0.0
0.7647842911133675 -0.7607948597805458 0.0
1.4843221743635016 -0.2592572098636008 0.0
1.4254628192836361 -0.2582301874557463 0.0
0.5728484586103322 -1.1468686444331084 0.0
0.3222081367334086 -0.2017700078766474 0.0
0.2870883514234028 -0.2013821812562108 0.0
0.5556252483647328 -1.1829203576221770 0.0
1.5717089490570020 -0.0802676907710945 0.0
1.6069908501408166 -0.1147983135470094 0.0
0.2788507081206327 -0.6997204806109913 0.0
0.2587663548500044 -0.6473789648031713 0.0
1.1275699586089145 -1.0042552300692367 0.0
0.7168113352649671 -0.1839944856295931 0.0
0.6900090675542424 -0.1745991259657021 0.0
1.1330014906441197 -0.9090876848784618 0.0
1.5999633201590691 -0.0173975582331241 0.0
1.5974091560623565 -0.0070644108046006 0.0
1.4934069466973914 -0.3762362235703393 0.0
1.4992806364180480 -0.0776839548794918 0.0
1.4499888821543054 -0.3383852876993609 0.0
0.2446360010336084 -0.9064152181243167 0.0
1.5090125219047024 -0.0753776543286979 0.0
1.5838220631103166 0.0096426902417314 0.0
1.5335403259329052 0.0357257563938894 0.0
1.2349830735267864 -0.4785359717828970 0.0
0.6586036084187280 -1.0715456436607802 0.0
1.1361652183657016 -0.4287951092362072 0.0
0.6525650242835123 -1.0787406853887758 0.0
0.0949842927357263 -0.0684329918981385 0.0
0.0798851867562134 -0.0663751602084130 0.0
1.1862731673447005 -0.0818998272525938 0.0
1.1246861770151002 -0.0865260246820419 0.0
0.1352263349939915 -0.3634077064730821 0.0
0.1011732117024770 -0.3112607931230766 0.0
0.1611663196493658 -0.8137158557730657 0.0
0.4757275681695834 -0.9241666663687906 0.0
0.4729465711284031 -0.5332162945366459 0.0
0.5296800641614403 -0.5185448826316490 0.0
1.3889066716140697 -0.0109230716058256 0.0
1.3050781863062122 -0.0809796652374155 0.0
0.8243568392212051 -0.1239941111538635 0.0
0.8774137836610096 -0.1235705440293852 0.0
0.5694876979704248 -1.0677184308744831 0.0
0.6220036032000423 -1.1707650791750297 0.0
0.3365414346776363 -0.0282856677977233 0.0
0.3205179327274378 -0.0331690641688855 0.0
1.2796533356863915 0.0132308339784052 0.0
1.2805255131267301 0.0107985899119763 0.0
0.4499845484071300 -0.9901761054804434 0.0
1.2570844359664977 -0.0041141864279105 0.0
0.8466244229361997 -1.0427943841025320 0.0
0.7684672404903072 -0.4294454335416712 0.0
0.7869929132606716 -0.4669342664959128 0.0
0.0048518528714053 -0.4301565864708013 0.0
1.4684702443156366 -0.5647026925859654 0.0
0.0593847180875416 -0.4491645510473933 0.0
1.3443628939038108 0.0066580906535793 0.0
1.3444000051484779 0.0152163718043045 0.0
1.1408392513098371 -0.8026254685591075 0.0
1.3764167983457019 -0.0383240670110019 0.0
1.3742044704249756 -0.0562008241780778 0.0
0.0813687505855514 -0.1283791469532226 0.0
0.0699812558248264 -0.1190158083654468 0.0
0.7937569870205011 -0.0092957055657379 0.0
0.7814651949891304 -0.0243353159564366 0.0
1.2702890170668848 -0.6103712251959457 0.0
1.2465304770812065 -0.1090790371744548 0.0
1.4130999383071587 -0.5684522471883452 0.0
1.5258201252102752 -0.0900989618096012 0.0
1.2037614866252757 -0.0638989813875599 0.0
0.6302153962618751 -1.1300738802902317 0.0
0.8892711893544966 -0.8932836680750802 0.0
0.7783165369576829 -1.1899978413965397 0.0
1.1066096750752772 -0.0701340819873068 0.0
0.5678533594359197 -0.8161467977594136 0.0
1.0653957914077647 -0.0506617293953645 0.0
1.0669802932425059 -0.0512830892315852 0.0
1.5675124376040968 -0.0768605923560945 0.0
0.1186928249172698 -0.0402783795384689 0.0
0.1089904965640095 -0.0391467448908130 0.0
0.9966105993780319 -0.8678046986487937 0.0
0.0449377081084237 -0.2403199746379863 0.0
0.4827997642733241 -0.7019237319670394 0.0
0.2328944955792258 -0.8637221728963586 0.0
1.5515319826413767 -0.1780599365653681 0.0
1.2284193355463229 -0.2191627834277201 0.0
1.2100924695627020 -0.2004875331875031 0.0
1.1677098205983565 -0.2660054634618685 0.0
0.4575370462732326 -0.2130953146702255 0.0
0.4857128289736050 -0.2036123537316581 0.0
1.2415356314023247 -0.2881097231162834 0.0
1.0456938636745423 -0.0250752244437639 0.0
1.0438911827948996 -0.0259452918506487 0.0
0.9530052067488041 -0.1079074014901730 0.0
1.0102493003871384 -0.1122516122023114 0.0
0.2896983240325128 -0.0491616200652637 0.0
0.2830721839443883 -0.0470219435997520 0.0
0.8463697991808808 -0.0254791880684920 0.0
1.5640724335311580 -0.1654122348692822 0.0
0.0406534279541419 -0.0132139716743873 0.0
0.0314871320621279 -0.0140127582489834 0.0
1.5365369632217847 -0.0971679152666159 0.0
1.5682679375774420 -0.1240055138323407 0.0
0.1306062998854376 -0.5575883350890629 0.0
1.0961287216881810 0.2304511555957203 0.0
1.0942775281278032 0.2307459402816754 0.0
0.2959609779410772 -0.5135603024877721 0.0
0.2586386555020178 -0.4684338349784489 0.0
0.6406068205644270 -0.9461997785303204 0.0
0.9289188971858626 -0.0576197576668687 0.0
0.8972514877549406 -0.1912300546618848 0.0
0.0413739198231399 -0.2198851241904273 0.0
0.4684860726759110 -1.1373684813900578 0.0
0.2532977842326082 -0.8638924875306865 0.0
0.8175831525614449 -0.1330950216313461 0.0
1.0937746418611092 -0.7687152492366317 0.0
1.5570642498719371 -0.0588691523304504 0.0
0.5536299953622343 -1.0650303340342937 0.0
0.0168678730137768 -0.3664410011099998 0.0
1.0620666156155545 -0.6328900371346807 0.0
0.0556478681701977 -0.3455033706373044 0.0
0.7734688103729330 -0.9650294049261160 0.0
0.4204008572523685 -0.0202534212324623 0.0
0.4361163540859981 -0.0175022426592824 0.0
0.0583281302971892 -0.1202701115171228 0.0
0.0469248077334597 -0.0322433504164305 0.0
0.0371010974761478 -0.0303846138950858 0.0
1.2431242253549935 -0.7586199804149487 0.0
0.9363352518037316 -0.5961690719950493 0.0
0.5737911087358332 -1.1032916911568706 0.0
0.0432186665541138 -0.1403671580485791 0.0
0.8662609888438757 0.1645079919650578 0.0
0.8394311382374378 0.1313328581894111 0.0
0.1904771568148442 -0.1769101633212624 0.0
0.1672652421573785 -0.1692608503719495 0.0
1.6333381733183354 -0.1193188248782739 0.0
1.5720295387640351 -0.3334046409716821 0.0
0.6466629313783722 -1.1356635441590197 0.0
0.7048150320494087 -1.1456626798184169 0.0
0.1505512212148759 -0.4698820797537901 0.0
0.4132851775503600 -1.1130464103582232 0.0
0.0487222527577617 -0.0288066289505162 0.0
0.0558316746621463 -0.0299316443134519 0.0
0.4451458682970330 -1.0605982924027753 0.0
0.6644758545596958 -0.1300003370179754 0.0
0.6357123301659884 -0.1190323275302722 0.0
0.9681731180074168 -0.4034168133690684 0.0
1.3564895078677872 -0.0337990363381697 0.0
0.1552425083103680 -0.6504296808424095 0.0
1.3063764107599682 -0.0599239008093486 0.0
0.9306641372532133 -0.3805403081981692 0.0
0.5121248170532506 -0.0317730701501745 0.0
0.5296040659505489 -0.0350669459739386 0.0
0.8930670971315812 -0.0212573120495754 0.0
1.5165651453947326 -0.3589175462584380 0.0
1.4326215554814978 -0.4065190512671670 0.0
0.5690054911417537 -0.9691945970325988 0.0
1.5999446349468549 -0.0527463331244611 0.0
1.5898272356557834 -0.0445027747120533 0.0
0.2516870068985287 -0.3135880617139307 0.0
0.2200751316106053 -0.3018035064370438 0.0
0.7793379441703708 -0.1432008433389620 0.0
0.8006121813296517 -0.1598686986581057 0.0
1.5550974835198261 -0.0749052529033547 0.0
0.5690553886814728 -0.0629367863262414 0.0
0.6396125058574479 -0.0774413879152305 0.0
0.6601606218567249 -0.0810605363248875 0.0
1.2611215089902001 0.0568719279532460 0.0
1.2108808668510156 0.0464638130579441 0.0
0.6406782444735604 0.0337399793124470 0.0
0.6420237524045441 0.0320050720794464 0.0
1.4552430630988404 -0.0555884962034013 0.0
0.3252807602884933 -0.0545662297345397 0.0
0.3387159123193386 -0.0574579044008749 0.0
0.2713412063245716 -0.1166608740626572 0.0
0.2907445498539249 -0.1165718865343407 0.0
0.7312562571063661 0.0592843931128482 0.0
0.7330677093976713 0.1060417362351848 0.0
0.0216645960850287 -0.4013324285147877 0.0
1.3130332852783064 -0.7296390090493008 0.0
1.3368229018775368 -0.7662633752436419 0.0
0.6641805722330142 -0.6170127671294389 0.0
0.7453907715053217 -0.5473708484639032 0.0
1.3850176291515053 -0.4211335107977504 0.0
0.6062089770667096 0.0251245947506690 0.0
0.6330061299664501 -0.0201990934498699 0.0
0.5379604338507404 -0.1084851459485756 0.0
0.5404717538455044 -0.1063230192669646 0.0
0.6582400081346963 -1.1769979597907121 0.0
0.1078964016005307 -0.0245510396297015 0.0
0.1033215875546098 -0.0255500795353046 0.0
0.5925463336792915 -0.7887210015410003 0.0
0.6720059530203670 -0.0974623526243817 0.0
0.6707949487983793 -0.1053228267859772 0.0
1.3110591479124136 -0.1351974853471151 0.0
1.3156470473324713 -0.1135473531938479 0.0
0.4911305246025884 -0.3128204860794680 0.0
0.4361684830550346 -0.3169621798240613 0.0
-0.0131349813692334 -0.1939906144440548 0.0
1.3749749444329471 -0.1625811084312670 0.0
0.6216606254536629 -0.8635888048682658 0.0
0.1257234134523736 -0.4705319609712589 0.0
0.4340225749109656 -0.6962614764111930 0.0
0.9941518691108124 -1.0089508855335916 0.0
0.8864482006325266 -1.1639945180012243 0.0
1.4953916842917685 -0.0631637079044439 0.0
1.4912407150683689 -0.0945311228654051 0.0
0.6381275864612549 -1.2183085154986644 0.0
1.0310701215885978 -0.2578039317071031 0.0
0.9875233543187525 -0.2116400636174738 0.0
0.5377162687475419 -0.1549462179607797 0.0
0.5246894758204392 -0.1621696979757390 0.0
1.5532583040132968 -0.1076997673273924 0.0
0.9546785204064409 -1.0629824798973688 0.0
0.4048058917622931 -1.0619731208737524 0.0
1.2096112391190539 -0.1675197734345784 0.0
1.5665313711618620 -0.0897282708733268 0.0
1.5759629062270153 -0.0943325177675080 0.0
1.2717011024805192 -0.1659398098456222 0.0
0.1153540543556822 -0.0090038891249054 0.0
0.1226767671277417 -0.0071573581963520 0.0
0.4245507354667819 0.0661729999026740 0.0
1.3564011414971060 -0.1352310876352371 0.0
1.3251666801664077 0.0248766695571406 0.0
0.4282118626554705 -0.8627220848910829 0.0
0.1442071428385661 -0.2494352595385033 0.0
0.1196100851954833 -0.2235702800036815 0.0
0.1916059798205895 -0.0839304852320788 0.0
0.1726240050121234 -0.0829619805884967 0.0
0.3785063295578102 -0.6482472035923397 0.0
-0.0097700547997294 -0.1403463947320330 0.0
0.8680182318664232 -0.8109342940887159 0.0
0.5214099142195366 0.0366261535888343 0.0
0.5046325087119379 0.0191628163692622 0.0
1.4809393819659495 -0.0473477980423600 0.0
1.4811247917578056 -0.0589283389628187 0.0
0.9275472253860595 -1.0809346110107463 0.0
1.5765074281966285 -0.1757094460650190 0.0
0.4292774770874545 -0.0488512059353789 0.0
0.0415194131805783 -0.0481305942085028 0.0
0.0309575941185919 -0.0434378407299583 0.0
0.3655627370781616 -0.8081625791724252 0.0
0.0281222068072394 -0.1352090831040288 0.0
0.6954369560385615 -0.8580140826191910 0.0
1.4351920202591437 -0.1387917300272838 0.0
0.6491534719673938 -0.3904194405462627 0.0
0.6125262689084134 -0.4142888884667621 0.0
0.6113356960049577 -1.1181868534548975 0.0
0.6699851600230444 0.0784619439444701 0.0
0.6670437261277272 0.0810580949120264 0.0
0.7593764332145843 -1.0833879988201744 0.0
0.1185229920537582 -0.6670440320745752 0.0
0.1052418659329419 -0.5259561724729623 0.0
0.0006674317563195 -0.1338447358470642 0.0
0.8422002585523805 0.0648884025634631 0.0
0.8050364370740651 0.0966342969490079 0.0
0.8329490753905303 -0.0508109019276838 0.0
0.8043190683088927 -0.0673431311733502 0.0
0.3090056298983696 -0.8927044767247975 0.0
0.6705000335051763 -0.1613967305211382 0.0
0.7441221119430690 -0.9401666692625152 0.0
1.3303791352764001 -0.7777794983997401 0.0
0.5452103774124065 0.0827551153386307 0.0
1.4804753534089861 -0.0111758278767116 0.0
1.4840906909934795 -0.0072301235318270 0.0
1.0471450400385480 -1.0550761547100733 0.0
0.7100438654970869 -1.1022206083179014 0.0
1.3357566922880391 -0.1710891440194306 0.0
0.6917020708860785 -1.1576053388506007 0.0
0.0570444257207647 -0.4489694603877610 0.0
1.1960776452762787 -0.0691122133584939 0.0
0.3743395141704774 -0.9957219279722952 0.0
1.6357317219261773 -0.0971381995096864 0.0
0.4105155389434372 -0.0051484864943958 0.0
1.5805966810667815 -0.0859510949192970 0.0
1.5501262507747680 -0.0993796142196757 0.0
0.0056258610645919 0.0014402153623682 0.0
0.0107687617039794 0.0025072925300994 0.0
0.5352895187494462 0.0417288853631250 0.0
0.3551392407216049 -0.0513556970526523 0.0
0.0041496869348221 -0.0054889114089926 0.0
0.0075049163343489 -0.0051022723860807 0.0
0.5550832929424846 -0.0345130329683109 0.0
0.6167462228853613 -0.8303216631649232 0.0
0.5589928831565083 -0.0341093345440641 0.0
0.5529593461952707 -0.0270012891898836 0.0
0.7057229301226822 -0.2935560714239936 0.0
0.7452941710002646 -0.2851465445556312 0.0
0.6140057806448349 -0.7116561988778107 0.0
0.3343480868991335 -0.3939673425228364 0.0
0.3766541878621051 -0.4188330105592783 0.0
0.0217501832374610 0.0021483757301692 0.0
0.0136246931304212 0.0007621385532746 0.0
1.3304068789829366 -0.4969174044584811 0.0
1.3009863245154754 -0.6426654058015886 0.0
0.9013447919580139 -0.5751853166729305 0.0
0.7854642484697028 -0.4636872512662428 0.0
