# vtk DataFile Version 3.0
LucasCarvalhoTCC Results
ASCII

DATASET POLYDATA
FIELD FieldData 1
TIME 1 1 double
5.300000000000001

POINTS 380 float
0.0 2.0 0.0
2.0 2.0 0.0
3.0 2.0 0.0
3.0 1.0 0.0
5.0 1.0 0.0
5.0 0.0 0.0
3.0 0.0 0.0
2.0 0.0 0.0
2.0 1.0 0.0
0.0 1.0 0.0
0.2643114543905713 2.0 0.0
0.5169795502969444 2.0 0.0
0.7585171880292413 2.0 0.0
0.9894145836600268 2.0 0.0
1.210140497826619 2.0 0.0
1.421143008568911 2.0 0.0
1.622850459538253 2.0 0.0
1.815672303789548 2.0 0.0
2.188552664328277 2.0 0.0
2.359329284173903 2.0 0.0
2.514005696104645 2.0 0.0
2.654099788331341 2.0 0.0
2.780986322989182 2.0 0.0
2.895910470953052 2.0 0.0
3.0 1.9 0.0
3.0 1.8 0.0
3.0 1.7 0.0
3.0 1.6 0.0
3.0 1.5 0.0
3.0 1.4 0.0
3.0 1.3 0.0
3.0 1.2 0.0
3.0 1.1 0.0
3.105031513416626 1.0 0.0
3.221094637894669 1.0 0.0
3.349348047908936 1.0 0.0
3.491072094154001 1.0 0.0
3.647681638607018 1.0 0.0
3.820740106959136 1.0 0.0
4.011975186625977 1.0 0.0
4.223295996958671 1.0 0.0
4.456812096249916 1.0 0.0
4.714854728122151 1.0 0.0
5.0 0.7500000000000003 0.0
5.0 0.5000000000000012 0.0
5.0 0.2500000000000011 0.0
4.735688545609428 0.0 0.0
4.483020449703056 0.0 0.0
4.241482811970759 0.0 0.0
4.010585416339973 0.0 0.0
3.789859502173381 0.0 0.0
3.578856991431089 0.0 0.0
3.377149540461747 0.0 0.0
3.184327696210452 0.0 0.0
2.811447335671723 0.0 0.0
2.640670715826097 0.0 0.0
2.485994303895355 0.0 0.0
2.345900211668659 0.0 0.0
2.219013677010818 0.0 0.0
2.104089529046948 0.0 0.0
2.0 0.1 0.0
2.0 0.2 0.0
2.0 0.3 0.0
2.0 0.4 0.0
2.0 0.5 0.0
2.0 0.6 0.0
2.0 0.7 0.0
2.0 0.8 0.0
2.0 0.9 0.0
1.894968486583374 1.0 0.0
1.77890536210533 1.0 0.0
1.650651952091063 1.0 0.0
1.508927905845999 1.0 0.0
1.352318361392982 1.0 0.0
1.179259893040864 1.0 0.0
0.9880248133740233 1.0 0.0
0.7767040030413299 1.0 0.0
0.5431879037500846 1.0 0.0
0.2851452718778493 1.0 0.0
0.0 1.25 0.0
0.0 1.499999999999999 0.0
0.0 1.749999999999999 0.0
2.426045913985508 1.348290599604586 0.0
2.562221387987337 0.6558377602558874 0.0
1.966703786708101 1.492474555319359 0.0
3.033486484223225 0.4973568340887861 0.0
2.371610747520728 0.97814425147097 0.0
2.648098402859118 1.648016516253387 0.0
2.351901597140882 0.3519834837466129 0.0
2.694321138879857 1.061432730999581 0.0
1.441644339445862 1.496646809257773 0.0
3.554831642064292 0.501744031268764 0.0
2.720742750697982 1.350625068836981 0.0
2.282037541072919 0.639419348257894 0.0
2.813390610951134 0.7911761792959446 0.0
2.310700631729327 1.679155452525512 0.0
2.688751528716965 0.3206838402855661 0.0
2.211165393176843 1.213708510063781 0.0
0.9449004170027906 1.496357611130017 0.0
4.05509958299721 0.5036423888699835 0.0
3.025501657200047 0.7528388163714679 0.0
1.714778657098197 1.300039655550584 0.0
1.958264922640818 1.245975101752485 0.0
2.206386339371814 0.8500000000000001 0.0
3.336706349465057 0.704398544338507 0.0
4.529565928894533 0.555233644424822 0.0
0.4704340711054673 1.444766355575178 0.0
2.186983355180128 1.461437746541105 0.0
2.553715879020142 0.8859594914241276 0.0
2.782212276375736 0.5474565156445963 0.0
2.500206140967324 1.148517546040804 0.0
2.803373162317882 1.783880361314082 0.0
2.196626837682118 0.2161196386859174 0.0
1.735623536927746 1.664129737658362 0.0
3.268802735993943 0.3358439745752063 0.0
2.799454045372581 1.51553500056848 0.0
2.18762015375897 0.4992029885790829 0.0
2.813478812948685 1.18678600527921 0.0
2.400994471757771 0.7612313552289275 0.0
2.405444563947088 0.5311203927463914 0.0
2.583195945356847 1.473216966241769 0.0
3.734210872783077 0.7260959952797862 0.0
1.256500988572085 1.265010492624376 0.0
2.938353069321001 0.2909212553641365 0.0
2.061245308362322 1.709221243241415 0.0
2.182240881432738 1.001025052084926 0.0
2.830214026212788 0.9796244234047695 0.0
2.49023894829247 1.787687811117195 0.0
2.50976105170753 0.2123121888828049 0.0
1.194806886820808 1.686899295332255 0.0
3.805193113179192 0.3131007046677451 0.0
2.655039231860651 1.208917360245127 0.0
1.493530449555064 1.231198576616718 0.0
2.345622594939228 1.152685186835846 0.0
2.41380980106708 1.521513100394759 0.0
2.58979513084283 0.4863225267637531 0.0
2.135472648094309 0.7246460081196311 0.0
2.912574128751924 0.660128736186259 0.0
2.866043013605144 1.353074765380587 0.0
0.6928324624395237 1.69170809873467 0.0
4.307167537560476 0.3082919012653306 0.0
2.071506740582853 1.128535871978767 0.0
0.6831902494895832 1.302725441792086 0.0
4.316809750510417 0.6972745582079137 0.0
2.85534466702333 1.667491236848871 0.0
2.141886244104996 0.336139391754002 0.0
1.447743165823209 1.773242752731258 0.0
3.554386585610856 0.224002072703283 0.0
2.96485662756902 0.8593908564801968 0.0
3.240425509636175 0.8099760775594669 0.0
2.088410584923666 1.339747073830609 0.0
3.277530767974837 0.4939020807639749 0.0
3.534313505233912 0.7935179117986669 0.0
2.546683861402325 1.011736398479819 0.0
2.664793655038503 0.758149595673951 0.0
2.7009922066801 0.9086021996324817 0.0
1.844652141496971 1.153158997353228 0.0
2.575910747861113 1.316876286520138 0.0
3.994328863599566 0.7454319923658932 0.0
1.005671136400434 1.254568007634107 0.0
1.722192091537185 1.482888323667831 0.0
2.644751416415203 1.850904811198953 0.0
2.355248583584797 0.1490951888010467 0.0
2.31560379269905 1.25706851182614 0.0
2.129697972466254 0.5864366202645266 0.0
2.417220568140766 0.6397160301847872 0.0
2.867945749403976 1.069821281672812 0.0
3.182303046124178 0.6739667261124369 0.0
4.702774994215813 0.2953677284017739 0.0
0.2972250057841874 1.704632271598226 0.0
2.90043748182062 0.4316738443013928 0.0
2.486081387366873 0.3514585853722887 0.0
2.513918612633127 1.648541414627711 0.0
2.086778258621772 1.563111332603502 0.0
4.025359850459486 0.2638518716814435 0.0
0.9746401495405139 1.736148128318556 0.0
3.116389458098145 0.2933651166122753 0.0
1.885410353788165 1.707062521230272 0.0
2.327134732627959 1.833634230002939 0.0
2.672865267372041 0.1663657699970617 0.0
1.675899428547673 1.15999616666306 0.0
1.858973331615206 1.373382723203102 0.0
2.860266039499884 1.862282581689995 0.0
2.139733960500116 0.1377174183100045 0.0
1.257473476073173 1.479081588926576 0.0
3.731624273377778 0.5208146070195914 0.0
2.115038607594509 0.9238947313642476 0.0
0.2734661728051435 1.270630989444945 0.0
4.726533827194856 0.7293690105550548 0.0
2.699965708650878 1.465007479364728 0.0
2.298365077320068 0.5341069340550768 0.0
2.510583000486659 0.7602856732279889 0.0
3.370667741214912 0.8392397884376295 0.0
3.067541604254986 0.8806352314757129 0.0
2.90073732483139 1.443475210354718 0.0
2.264071206758208 0.9501943312745662 0.0
2.278663096491763 0.7489636980394857 0.0
1.952511813454414 1.110576661474517 0.0
2.744352083917141 0.687787375233183 0.0
1.566252941493004 1.383661493752942 0.0
2.437660520624072 0.8703573012735125 0.0
2.904826075218911 1.261819176983655 0.0
2.305967018083784 1.391390767447104 0.0
2.105729326736999 0.8145314366030645 0.0
2.428967188976762 1.236966721617647 0.0
3.060475488407204 0.1442825789852263 0.0
1.934979199332455 1.852811714602595 0.0
2.095475260770118 0.4348597444661615 0.0
2.914777085426361 1.759093454264707 0.0
2.084827330449114 0.2414252069642749 0.0
2.207128288422204 1.315477221019454 0.0
2.658751426439581 0.5773232450959589 0.0
2.612380011409894 1.114144853433198 0.0
2.897371573983894 1.569769587751228 0.0
0.5001010519014215 1.226918930408543 0.0
4.499898948098578 0.7730810695914568 0.0
2.753086810589338 1.690362801865437 0.0
2.246793053318422 0.3097947118702842 0.0
3.391580469276819 0.5673489147038103 0.0
3.035026488699165 0.6179797538177514 0.0
2.449819864663089 1.055109427275025 0.0
2.27653308928065 1.054384468582349 0.0
2.794675693196835 1.418106589018447 0.0
2.778866980525137 1.083577784614141 0.0
2.244522876020972 0.1116738824400324 0.0
2.755477123979027 1.888326117559968 0.0
2.323887028942199 0.8604475039748537 0.0
2.204900210979926 1.747483509451062 0.0
2.794853185869193 0.2526222191943996 0.0
2.320767315286541 1.530441598510029 0.0
1.550828143561484 1.606851581022188 0.0
2.796593663741882 1.288013595743853 0.0
3.436143660897262 0.3940652474171653 0.0
2.682379445750112 0.4493639922429763 0.0
3.242313228541417 0.154845696987206 0.0
1.75965289115187 1.844031320058407 0.0
1.3642341383496 1.159631408929946 0.0
1.980047380836635 1.36362624976796 0.0
2.070303834520089 1.451946835577872 0.0
2.55866460451515 1.229901920133861 0.0
4.26844523535139 0.499131154814159 0.0
0.7315547646486098 1.500868845185841 0.0
2.716116351489881 1.570657861970705 0.0
2.283245236086922 0.4299499540566049 0.0
4.50573905238033 0.204273435313806 0.0
0.4942609476196695 1.795726564686194 0.0
3.605070352001925 0.644396355247622 0.0
3.171946621948212 0.9019117497969773 0.0
3.40309695214227 0.1789624633199048 0.0
1.59690304785773 1.821037536680094 0.0
4.776800700354217 0.5074282293075529 0.0
0.2231992996457826 1.492571770692447 0.0
1.293020597407515 1.839015256431498 0.0
3.706979402592485 0.1609847435685022 0.0
1.398281395597716 1.351857389185529 0.0
2.880181082677912 0.1378504756446906 0.0
2.119200639021148 1.861833157788504 0.0
2.408646939494887 0.2452196658480275 0.0
2.591353060505113 1.754780334151973 0.0
1.146570081566377 1.160946826906423 0.0
3.853429918433624 0.8390531730935771 0.0
2.920846657438631 1.149071660619678 0.0
2.101132283911678 1.226382957654413 0.0
2.903672483971366 0.7774662795474147 0.0
2.516386521935266 0.571665255016536 0.0
2.475412447847437 1.444413760085193 0.0
2.903041575637174 0.5510905120278109 0.0
3.666476299189054 0.8553176740217776 0.0
1.558137053653031 1.119389262041809 0.0
3.867595456948903 0.1475874639835382 0.0
1.132404543051097 1.852412536016462 0.0
2.635017655944937 0.9730281566682446 0.0
2.436667490139274 1.901171080200935 0.0
2.563332509860726 0.09882891979906516 0.0
2.091598337090247 1.040423151014485 0.0
0.8316881289508771 1.172977685150089 0.0
4.168311871049123 0.827022314849911 0.0
3.648565743761548 0.3681286963687066 0.0
1.355037313653319 1.636865536133179 0.0
2.58412781071005 1.576586299624529 0.0
2.41587218928995 0.4234137003754711 0.0
2.083716468691946 0.6634832154935376 0.0
1.843942294678346 1.256771801786488 0.0
[...]
POINT_DATA 380

VECTORS Velocity float
0.0000000000000000 0.0000000000000000 0.0
0.0000000000000000 0.0000000000000000 0.0
0.0000000000000000 0.0000000000000000 0.0
0.0000000000000000 0.0000000000000000 0.0
0.0000000000000000 0.0000000000000000 0.0
0.9186851532409405 -0.1330573695728442 0.0
0.0000000000000000 0.0000000000000000 0.0
0.0000000000000000 0.0000000000000000 0.0
0.0000000000000000 0.0000000000000000 0.0
0.0000000000000000 0.0000000000000000 0.0
0.0000000000000000 0.0000000000000000 0.0
0.0000000000000000 0.0000000000000000 0.0
0.0000000000000000 0.0000000000000000 0.0
0.0000000000000000 0.0000000000000000 0.0
0.0000000000000000 0.0000000000000000 0.0
0.0000000000000000 0.0000000000000000 0.0
0.0000000000000000 0.0000000000000000 0.0
0.0000000000000000 0.0000000000000000 0.0
0.0000000000000000 0.0000000000000000 0.0
0.0000000000000000 0.0000000000000000 0.0
0.0000000000000000 0.0000000000000000 0.0
0.0000000000000000 0.0000000000000000 0.0
0.0000000000000000 0.0000000000000000 0.0
0.0000000000000000 0.0000000000000000 0.0
0.0000000000000000 0.0000000000000000 0.0
0.0000000000000000 0.0000000000000000 0.0
0.0000000000000000 0.0000000000000000 0.0
0.0000000000000000 0.0000000000000000 0.0
0.0000000000000000 0.0000000000000000 0.0
0.0000000000000000 0.0000000000000000 0.0
0.0000000000000000 0.0000000000000000 0.0
0.0000000000000000 0.0000000000000000 0.0
0.0000000000000000 0.0000000000000000 0.0
0.0000000000000000 0.0000000000000000 0.0
0.0000000000000000 0.0000000000000000 0.0
0.0000000000000000 0.0000000000000000 0.0
0.0000000000000000 0.0000000000000000 0.0
0.0000000000000000 0.0000000000000000 0.0
0.0000000000000000 0.0000000000000000 0.0
0.0000000000000000 0.0000000000000000 0.0
0.0000000000000000 0.0000000000000000 0.0
0.0000000000000000 0.0000000000000000 0.0
0.0000000000000000 0.0000000000000000 0.0
1.1551787951701302 0.3642248245440649 0.0
0.7957331401225319 0.0634451539142530 0.0
1.1395834006136270 -0.2964924706193502 0.0
0.0000000000000000 0.0000000000000000 0.0
0.0000000000000000 0.0000000000000000 0.0
0.0000000000000000 0.0000000000000000 0.0
0.0000000000000000 0.0000000000000000 0.0
0.0000000000000000 0.0000000000000000 0.0
0.0000000000000000 0.0000000000000000 0.0
0.0000000000000000 0.0000000000000000 0.0
0.0000000000000000 0.0000000000000000 0.0
0.0000000000000000 0.0000000000000000 0.0
0.0000000000000000 0.0000000000000000 0.0
0.0000000000000000 0.0000000000000000 0.0
0.0000000000000000 0.0000000000000000 0.0
0.0000000000000000 0.0000000000000000 0.0
0.0000000000000000 0.0000000000000000 0.0
0.0000000000000000 0.0000000000000000 0.0
0.0000000000000000 0.0000000000000000 0.0
0.0000000000000000 0.0000000000000000 0.0
0.0000000000000000 0.0000000000000000 0.0
0.0000000000000000 0.0000000000000000 0.0
0.0000000000000000 0.0000000000000000 0.0
0.0000000000000000 0.0000000000000000 0.0
0.0000000000000000 0.0000000000000000 0.0
0.0000000000000000 0.0000000000000000 0.0
0.0000000000000000 0.0000000000000000 0.0
0.0000000000000000 0.0000000000000000 0.0
0.0000000000000000 0.0000000000000000 0.0
0.0000000000000000 0.0000000000000000 0.0
0.0000000000000000 0.0000000000000000 0.0
0.0000000000000000 0.0000000000000000 0.0
0.0000000000000000 0.0000000000000000 0.0
0.0000000000000000 0.0000000000000000 0.0
0.0000000000000000 0.0000000000000000 0.0
0.0000000000000000 0.0000000000000000 0.0
1.0000000000000000 0.0000000000000000 0.0
1.0000000000000000 0.0000000000000000 0.0
1.0000000000000000 0.0000000000000000 0.0
0.9286065289882164 -0.8426371399771402 0.0
0.8120249165609640 -0.8686680381964115 0.0
1.5190157298529001 -0.2549546093319205 0.0
1.4613010003770566 -0.2509977738466644 0.0
0.5927249354832584 -1.2036341113374098 0.0
0.2593683215359404 -0.2066290909102396 0.0
0.2186833412717069 -0.1939907458416367 0.0
0.5774147992668451 -1.2230322426445421 0.0
1.5745017131628249 -0.0760789423462534 0.0
1.6112682730308197 -0.1201213248614909 0.0
0.2729029978268172 -0.6871580016418346 0.0
0.2512987381304596 -0.5982716925447088 0.0
1.1672417485441280 -0.9890662037635292 0.0
0.7035674930027696 -0.2076550157130149 0.0
0.6592204920185409 -0.1944935089002609 0.0
1.1614363238820045 -0.8993178412137557 0.0
1.6001560868460241 -0.0196642470178058 0.0
1.5975325421623643 -0.0092131702375126 0.0
1.4942388243177462 -0.3470207787290308 0.0
1.4995275934895391 -0.0571012789988585 0.0
1.4339004571350613 -0.3071040026906189 0.0
0.2586781814077719 -0.8127324168448311 0.0
1.5179290688554561 -0.0669971296710416 0.0
1.5836195491803176 0.0097488834917143 0.0
1.5334861305800578 0.0359718279228657 0.0
1.2929437845757004 -0.5011147142894241 0.0
0.7025762945715733 -1.2147002437160064 0.0
1.1904058678009461 -0.4598781645698771 0.0
0.6913486621122173 -1.2248128969997396 0.0
0.0492471756746596 -0.0645749239324058 0.0
0.0402703198862287 -0.0546373214272809 0.0
1.1915866574996772 -0.0809071766596022 0.0
1.1134422028444335 -0.0924036542688036 0.0
0.1045352820527306 -0.3133417615690524 0.0
0.0744278216518066 -0.2498912641043501 0.0
0.1740713236610078 -0.7324798688364098 0.0
0.4975381454473503 -0.9767309045877793 0.0
0.4512801484317375 -0.5603435794405892 0.0
0.5249240052625859 -0.5711420969644223 0.0
1.3930505295804547 -0.0126183736186411 0.0
1.3076790577524662 -0.0808473719447078 0.0
0.8072622647902445 -0.1294698534781629 0.0
0.8787628746441265 -0.1316940328581231 0.0
0.5541079788097184 -0.9712047050590814 0.0
0.6246921607770749 -1.0821918290969381 0.0
0.2929182918063828 -0.0361168685160242 0.0
0.2686675094500524 -0.0404601568830816 0.0
1.2771595356601519 0.0117118682475707 0.0
1.2777715046952813 0.0075060497640886 0.0
0.4683358584942787 -1.0607408689138567 0.0
1.2568033141841501 0.0019891044012134 0.0
0.8866713134320823 -1.1033810197075768 0.0
0.7864937639640662 -0.4906511574200295 0.0
0.7948268429187376 -0.5324003557415324 0.0
0.0310468315794792 -0.3450289387796489 0.0
1.5113721764994927 -0.5424834042764688 0.0
0.0639669030468763 -0.3753801547846551 0.0
1.3446620736351473 0.0064352036069099 0.0
1.3451159402538688 0.0149029173447368 0.0
1.0909181153653891 -0.7300954233291765 0.0
1.3761513092798157 -0.0384203680625290 0.0
1.3734702572825643 -0.0565273781422337 0.0
0.0413592857276091 -0.1093598668500941 0.0
0.0358983386242533 -0.0909534581553013 0.0
0.7915365076532080 -0.0085887345959425 0.0
0.7741903057849931 -0.0274555533023642 0.0
1.2366621894886820 -0.5578098634159681 0.0
1.2448826285893329 -0.0998144366945862 0.0
1.4526522127611181 -0.5528064761584580 0.0
1.5356509036953849 -0.0926576842761934 0.0
1.2095320244404313 -0.0649256325905430 0.0
0.6691959475335625 -1.2804006774508057 0.0
0.9540656384460297 -0.9831841512986440 0.0
0.8122302818595954 -1.2460451363742613 0.0
1.0670874254768783 -0.0556475513985402 0.0
0.5990131230026428 -0.9158981212881399 0.0
1.0658860282983025 -0.0517808657838304 0.0
1.0678123803643103 -0.0527216411276183 0.0
1.5801159797356488 -0.0650909973565208 0.0
0.0884483282621407 -0.0378938683971704 0.0
0.0772339604635575 -0.0345697125968084 0.0
1.0550654968302025 -0.9204541450904647 0.0
0.0406773510667782 -0.1833262122443620 0.0
0.4855083655847192 -0.7517678984024625 0.0
0.2469003963216586 -0.7602262867403258 0.0
1.5672213919775544 -0.1595316940499363 0.0
1.2290537902173033 -0.2189002704974421 0.0
1.2102398237789884 -0.2003274068213387 0.0
1.1912318637984392 -0.2690046686414967 0.0
0.3987462827782159 -0.2279586210422287 0.0
0.4392933051117384 -0.2251604931051372 0.0
1.2754055272712403 -0.2946575518130595 0.0
1.0451133834509840 -0.0267148931662575 0.0
1.0429466935311573 -0.0275424414796475 0.0
0.9370464126435982 -0.1125544700585380 0.0
1.0143127179486011 -0.1170175421980797 0.0
0.2703020909327425 -0.0539660787600619 0.0
0.2570150966521786 -0.0502171517900367 0.0
0.8342704418270890 -0.0180562799818973 0.0
1.5835910758946758 -0.1475376018023050 0.0
0.0080045578891862 -0.0177730723011099 0.0
0.0066154292071571 -0.0144110215857029 0.0
1.5372984083801229 -0.0975731016790463 0.0
1.5699326592504947 -0.1292963452527149 0.0
0.1405867881176683 -0.4780547805991406 0.0
1.0959932565712114 0.2306249595132666 0.0
1.0936324926791996 0.2311017333415537 0.0
0.2712215844409025 -0.5068061913123599 0.0
0.2259640837904793 -0.4307162641501222 0.0
0.6816138977543795 -1.0692502898139475 0.0
0.9324191810556689 -0.0545904042223968 0.0
0.8763860557122910 -0.1740731260126408 0.0
0.0347774722366482 -0.1748511285411710 0.0
0.4713768286284878 -1.0922268852966575 0.0
0.2673190235079143 -0.8205045968057165 0.0
0.7741907360515476 -0.1217940399324361 0.0
1.1655424314983054 -0.8142776440768278 0.0
1.5613616646921542 -0.0479089487546150 0.0
0.5826382563176546 -1.1662444884207899 0.0
0.0315400787175244 -0.3048897723600316 0.0
1.1312342344363455 -0.6865705142752483 0.0
0.0705913001663820 -0.2821236656704825 0.0
0.8252646392530831 -1.0795716080946844 0.0
0.4050246414754274 -0.0213485852806367 0.0
0.4320955116523995 -0.0191551776978915 0.0
0.0338277844838940 -0.0868251264329234 0.0
0.0126966348366750 -0.0302303563727372 0.0
0.0106106420403252 -0.0244606205647198 0.0
1.2965379240525188 -0.7657408261675814 0.0
0.9872748041832047 -0.6703293294786475 0.0
0.5997576197477196 -1.2150205617488328 0.0
0.0227784832744636 -0.1111951860537357 0.0
0.8659820660643273 0.1645798058850451 0.0
0.8386450781726129 0.1312768620822074 0.0
0.1321392708057842 -0.1644208658543912 0.0
0.1109738847681786 -0.1429855311386963 0.0
1.6437801959637492 -0.1223690580121489 0.0
1.6092634520861904 -0.3148808155063945 0.0
0.6803890537003257 -1.2678619125500685 0.0
0.7108389681571110 -1.1306187750864745 0.0
0.1360376563322639 -0.4125058914895273 0.0
0.4227494934184013 -1.0558273478685567 0.0
0.0267627096731150 -0.0231570149899627 0.0
0.0317218950138220 -0.0267518833962591 0.0
0.4595822805359071 -1.0556792292712001 0.0
0.6498020959643430 -0.1399838541397440 0.0
0.6044585987642367 -0.1246521177921416 0.0
1.0038632427980207 -0.4493530168351307 0.0
1.3586628648481773 -0.0290506373000932 0.0
0.1582088663007514 -0.5832254475530984 0.0
1.3014036472173209 -0.0660696836564665 0.0
0.9460740035573485 -0.4246144576674941 0.0
0.5001952780986313 -0.0333276145358644 0.0
0.5288965935484682 -0.0359261557371410 0.0
0.8947313040651603 -0.0192346495264009 0.0
1.5439259110346293 -0.3389376436919703 0.0
1.4791258975098927 -0.4059145773059829 0.0
0.5983348948305049 -1.0944237144393800 0.0
1.6000728833065059 -0.0535703945324450 0.0
1.5899154062655956 -0.0451315726201653 0.0
0.1995811356046227 -0.2980150376188594 0.0
0.1674347307109063 -0.2636852661895731 0.0
0.7800052206134049 -0.1433671547545650 0.0
0.8008380882372432 -0.1598519754561016 0.0
1.5613928288345207 -0.0781123855423441 0.0
0.5603835615304624 -0.0549111523581936 0.0
0.6300113358340820 -0.0793803079328439 0.0
0.6585730170235916 -0.0801148156320853 0.0
1.2611526218630582 0.0575598571523638 0.0
1.2108941035138685 0.0466758382570161 0.0
0.6381151103652328 0.0333191592901175 0.0
0.6381801155129792 0.0300058164582438 0.0
1.4571158804807987 -0.0511269574761656 0.0
0.3093962518184994 -0.0562334582391953 0.0
0.3317561943924723 -0.0608726213218049 0.0
0.2123433979529825 -0.1145536396728564 0.0
0.2374889750108246 -0.1196558372003735 0.0
0.7329588236488572 0.0586228779267880 0.0
0.7342558196322465 0.1056548393631608 0.0
0.0463607466197734 -0.3380636882343480 0.0
1.3140737773424873 -0.6942563159767539 0.0
1.3497280070126501 -0.7207792609707432 0.0
0.6751819435160087 -0.6909990932013875 0.0
0.7825627718120203 -0.6301776790843525 0.0
1.4405409395437836 -0.4211807404574238 0.0
0.6080904999450905 0.0247757205852816 0.0
0.6289938705760639 -0.0153937543943277 0.0
0.5363039377479155 -0.1094002865841400 0.0
0.5387244210628284 -0.1068868713298607 0.0
0.6958818561388905 -1.2860526184242984 0.0
0.0908122807656725 -0.0260175915144791 0.0
0.0838865809820480 -0.0267304373827024 0.0
0.5627998429772085 -0.6981306976554330 0.0
0.6719980506841752 -0.0979403841937233 0.0
0.6704792212111607 -0.1057501049392972 0.0
1.3067457358007211 -0.1415654581651162 0.0
1.3135414749811007 -0.1128237569398015 0.0
0.4486276954116938 -0.3372635917913950 0.0
0.3804797086435026 -0.3292785673704368 0.0
0.0048823554602284 -0.1452268995790532 0.0
1.3654214724021807 -0.1379628228016083 0.0
0.6033337187237048 -0.7647126790546633 0.0
0.1112908410169156 -0.4002874154324758 0.0
0.4350507774614786 -0.7501069472459059 0.0
0.9734564202991681 -0.9408302092138180 0.0
0.9071961117431636 -1.1391884536809858 0.0
1.4974073420034522 -0.0661365359065267 0.0
1.4929763459792249 -0.0970733826365176 0.0
0.6564223351065767 -1.2238756229181176 0.0
1.0526439732120485 -0.2817154602500828 0.0
0.9960148842121720 -0.2302452993317124 0.0
0.5001678704851523 -0.1748376915768345 0.0
0.4738960065001526 -0.1792147460442473 0.0
1.5619360716449395 -0.1091580640457960 0.0
1.0073051228097796 -1.1086801746628583 0.0
0.4209287458430916 -1.0693936817073173 0.0
1.2138047646208168 -0.1675983655838967 0.0
1.5660949534321345 -0.0925147955518812 0.0
1.5756337868005912 -0.0979772739120150 0.0
1.2924684064700938 -0.1695525115368680 0.0
0.0889238287004320 -0.0121748385561724 0.0
0.0988080783692758 -0.0106393435546222 0.0
0.4213384220570554 0.0687727065539331 0.0
1.3633808472054134 -0.1367634426267647 0.0
1.3200585201748554 0.0382303081306624 0.0
0.4445665489774049 -0.9242823314400728 0.0
0.0970691932025462 -0.2180010564598303 0.0
0.0764669836201207 -0.1786661638280246 0.0
0.1365034914424241 -0.0834041445470174 0.0
0.1174541773728121 -0.0748684030535156 0.0
0.3672847859566176 -0.6489125921955207 0.0
0.0111787467027119 -0.1084713913321099 0.0
0.9326183147707112 -0.9042065953426413 0.0
0.5211262267477211 0.0366047511722400 0.0
0.5040417784655821 0.0190513241472483 0.0
1.4811997733929103 -0.0483966777953318 0.0
1.4810729598632131 -0.0599317575707619 0.0
0.9558937811846573 -1.0744015246947536 0.0
1.6067359605449762 -0.1637434971542853 0.0
0.4305725628871860 -0.0487593167741257 0.0
0.0116425820730313 -0.0371244327952822 0.0
0.0077789324241393 -0.0304501712897792 0.0
0.3784139287152667 -0.8109294216671361 0.0
0.0160459402448146 -0.0958996511595568 0.0
0.7401272820646236 -0.9828143926000876 0.0
1.4550342861864938 -0.1368621512087740 0.0
0.6401907178831886 -0.4430219128222203 0.0
0.5879644212289741 -0.4543485176540976 0.0
0.6476080476703245 -1.2523235862821178 0.0
0.6698938313433749 0.0780470010707530 0.0
0.6672590506369458 0.0808057158145010 0.0
0.8091057129419390 -1.1983294546266001 0.0
0.1303889913791077 -0.5731474478241668 0.0
0.1088906314574746 -0.4437104308307270 0.0
0.0099237664140799 -0.1053995891094715 0.0
0.8421321255811133 0.0649325860884772 0.0
0.8047578189789285 0.0969204360156470 0.0
0.8330178313721357 -0.0507525917941410 0.0
0.8045912034119372 -0.0670039579361877 0.0
0.3182924819152349 -0.8757577645935761 0.0
0.6346497060079791 -0.1438615093084885 0.0
0.7956948541033119 -1.0657324869908025 0.0
1.3789958157244528 -0.7747335915567211 0.0
0.5295939736848653 0.0851784153523870 0.0
1.4803701093116022 -0.0122450856246821 0.0
1.4842843939615749 -0.0081589922145529 0.0
1.0386208413208979 -0.9786602138324657 0.0
0.7526303878504103 -1.2177804800580188 0.0
1.3240956483373663 -0.1502569696855453 0.0
0.7235297425695634 -1.2269479994739114 0.0
0.0893652646678084 -0.3783145023755485 0.0
1.1751746276648587 -0.0506212379715302 0.0
0.3745605939395791 -0.8977387971091477 0.0
1.6568480015007159 -0.0893094583288595 0.0
0.4123451633766679 -0.0054037778609668 0.0
1.5813534745020783 -0.0860542570960467 0.0
1.5503907453178385 -0.0992796939009269 0.0
-0.0066213670593390 -0.0013718542177754 0.0
-0.0078370250364885 -0.0018589801761656 0.0
0.5347212562616798 0.0430243230845660 0.0
0.3398787997523665 -0.0416619365652559 0.0
-0.0035788695693236 -0.0054682231014760 0.0
-0.0038718877368379 -0.0066305489287309 0.0
0.5569758368252913 -0.0346509115238001 0.0
0.6457782378850430 -0.9251156321067535 0.0
0.5591491676826836 -0.0341163590263353 0.0
0.5533686078303468 -0.0270390078623226 0.0
0.6781817812115668 -0.3312225343336891 0.0
0.7362154578511630 -0.3292096619583504 0.0
0.6459898932403128 -0.8117619867875042 0.0
0.2863545151951436 -0.3851471906088952 0.0
0.3364780372741527 -0.4358495159301791 0.0
-0.0082532313748895 -0.0036925636619540 0.0
-0.0069256874428409 -0.0028552416140419 0.0
1.2710627838457818 -0.4523585880109109 0.0
1.3667588669340376 -0.6540630202287238 0.0
0.9553374246855016 -0.6500108134719772 0.0
0.7347115711077983 -0.4179323790503333 0.0
