# vtk DataFile Version 3.0
LucasCarvalhoTCC Results
ASCII

DATASET POLYDATA
FIELD FieldData 1
TIME 1 1 double
5.5

POINTS 380 float
0.0 2.0 0.0
2.0 2.0 0.0
3.0 2.0 0.0
3.0 1.0 0.0
5.0 1.0 0.0
5.0 0.0 0.0
3.0 0.0 0.0
2.0 0.0 0.0
2.0 1.0 0.0
0.0 1.0 0.0
0.2643114543905713 2.0 0.0
0.5169795502969444 2.0 0.0
0.7585171880292413 2.0 0.0
0.9894145836600268 2.0 0.0
1.210140497826619 2.0 0.0
1.421143008568911 2.0 0.0
1.622850459538253 2.0 0.0
1.815672303789548 2.0 0.0
2.188552664328277 2.0 0.0
2.359329284173903 2.0 0.0
2.514005696104645 2.0 0.0
2.654099788331341 2.0 0.0
2.780986322989182 2.0 0.0
2.895910470953052 2.0 0.0
3.0 1.9 0.0
3.0 1.8 0.0
3.0 1.7 0.0
3.0 1.6 0.0
3.0 1.5 0.0
3.0 1.4 0.0
3.0 1.3 0.0
3.0 1.2 0.0
3.0 1.1 0.0
3.105031513416626 1.0 0.0
3.221094637894669 1.0 0.0
3.349348047908936 1.0 0.0
3.491072094154001 1.0 0.0
3.647681638607018 1.0 0.0
3.820740106959136 1.0 0.0
4.011975186625977 1.0 0.0
4.223295996958671 1.0 0.0
4.456812096249916 1.0 0.0
4.714854728122151 1.0 0.0
5.0 0.7500000000000003 0.0
5.0 0.5000000000000012 0.0
5.0 0.2500000000000011 0.0
4.735688545609428 0.0 0.0
4.483020449703056 0.0 0.0
4.241482811970759 0.0 0.0
4.010585416339973 0.0 0.0
3.789859502173381 0.0 0.0
3.578856991431089 0.0 0.0
3.377149540461747 0.0 0.0
3.184327696210452 0.0 0.0
2.811447335671723 0.0 0.0
2.640670715826097 0.0 0.0
2.485994303895355 0.0 0.0
2.345900211668659 0.0 0.0
2.219013677010818 0.0 0.0
2.104089529046948 0.0 0.0
2.0 0.1 0.0
2.0 0.2 0.0
2.0 0.3 0.0
2.0 0.4 0.0
2.0 0.5 0.0
2.0 0.6 0.0
2.0 0.7 0.0
2.0 0.8 0.0
2.0 0.9 0.0
1.894968486583374 1.0 0.0
1.77890536210533 1.0 0.0
1.650651952091063 1.0 0.0
1.508927905845999 1.0 0.0
1.352318361392982 1.0 0.0
1.179259893040864 1.0 0.0
0.9880248133740233 1.0 0.0
0.7767040030413299 1.0 0.0
0.5431879037500846 1.0 0.0
0.2851452718778493 1.0 0.0
0.0 1.25 0.0
0.0 1.499999999999999 0.0
0.0 1.749999999999999 0.0
2.426045913985508 1.348290599604586 0.0
2.562221387987337 0.6558377602558874 0.0
1.966703786708101 1.492474555319359 0.0
3.033486484223225 0.4973568340887861 0.0
2.371610747520728 0.97814425147097 0.0
2.648098402859118 1.648016516253387 0.0
2.351901597140882 0.3519834837466129 0.0
2.694321138879857 1.061432730999581 0.0
1.441644339445862 1.496646809257773 0.0
3.554831642064292 0.501744031268764 0.0
2.720742750697982 1.350625068836981 0.0
2.282037541072919 0.639419348257894 0.0
2.813390610951134 0.7911761792959446 0.0
2.310700631729327 1.679155452525512 0.0
2.688751528716965 0.3206838402855661 0.0
2.211165393176843 1.213708510063781 0.0
0.9449004170027906 1.496357611130017 0.0
4.05509958299721 0.5036423888699835 0.0
3.025501657200047 0.7528388163714679 0.0
1.714778657098197 1.300039655550584 0.0
1.958264922640818 1.245975101752485 0.0
2.206386339371814 0.8500000000000001 0.0
3.336706349465057 0.704398544338507 0.0
4.529565928894533 0.555233644424822 0.0
0.4704340711054673 1.444766355575178 0.0
2.186983355180128 1.461437746541105 0.0
2.553715879020142 0.8859594914241276 0.0
2.782212276375736 0.5474565156445963 0.0
2.500206140967324 1.148517546040804 0.0
2.803373162317882 1.783880361314082 0.0
2.196626837682118 0.2161196386859174 0.0
1.735623536927746 1.664129737658362 0.0
3.268802735993943 0.3358439745752063 0.0
2.799454045372581 1.51553500056848 0.0
2.18762015375897 0.4992029885790829 0.0
2.813478812948685 1.18678600527921 0.0
2.400994471757771 0.7612313552289275 0.0
2.405444563947088 0.5311203927463914 0.0
2.583195945356847 1.473216966241769 0.0
3.734210872783077 0.7260959952797862 0.0
1.256500988572085 1.265010492624376 0.0
2.938353069321001 0.2909212553641365 0.0
2.061245308362322 1.709221243241415 0.0
2.182240881432738 1.001025052084926 0.0
2.830214026212788 0.9796244234047695 0.0
2.49023894829247 1.787687811117195 0.0
2.50976105170753 0.2123121888828049 0.0
1.194806886820808 1.686899295332255 0.0
3.805193113179192 0.3131007046677451 0.0
2.655039231860651 1.208917360245127 0.0
1.493530449555064 1.231198576616718 0.0
2.345622594939228 1.152685186835846 0.0
2.41380980106708 1.521513100394759 0.0
2.58979513084283 0.4863225267637531 0.0
2.135472648094309 0.7246460081196311 0.0
2.912574128751924 0.660128736186259 0.0
2.866043013605144 1.353074765380587 0.0
0.6928324624395237 1.69170809873467 0.0
4.307167537560476 0.3082919012653306 0.0
2.071506740582853 1.128535871978767 0.0
0.6831902494895832 1.302725441792086 0.0
4.316809750510417 0.6972745582079137 0.0
2.85534466702333 1.667491236848871 0.0
2.141886244104996 0.336139391754002 0.0
1.447743165823209 1.773242752731258 0.0
3.554386585610856 0.224002072703283 0.0
2.96485662756902 0.8593908564801968 0.0
3.240425509636175 0.8099760775594669 0.0
2.088410584923666 1.339747073830609 0.0
3.277530767974837 0.4939020807639749 0.0
3.534313505233912 0.7935179117986669 0.0
2.546683861402325 1.011736398479819 0.0
2.664793655038503 0.758149595673951 0.0
2.7009922066801 0.9086021996324817 0.0
1.844652141496971 1.153158997353228 0.0
2.575910747861113 1.316876286520138 0.0
3.994328863599566 0.7454319923658932 0.0
1.005671136400434 1.254568007634107 0.0
1.722192091537185 1.482888323667831 0.0
2.644751416415203 1.850904811198953 0.0
2.355248583584797 0.1490951888010467 0.0
2.31560379269905 1.25706851182614 0.0
2.129697972466254 0.5864366202645266 0.0
2.417220568140766 0.6397160301847872 0.0
2.867945749403976 1.069821281672812 0.0
3.182303046124178 0.6739667261124369 0.0
4.702774994215813 0.2953677284017739 0.0
0.2972250057841874 1.704632271598226 0.0
2.90043748182062 0.4316738443013928 0.0
2.486081387366873 0.3514585853722887 0.0
2.513918612633127 1.648541414627711 0.0
2.086778258621772 1.563111332603502 0.0
4.025359850459486 0.2638518716814435 0.0
0.9746401495405139 1.736148128318556 0.0
3.116389458098145 0.2933651166122753 0.0
1.885410353788165 1.707062521230272 0.0
2.327134732627959 1.833634230002939 0.0
2.672865267372041 0.1663657699970617 0.0
1.675899428547673 1.15999616666306 0.0
1.858973331615206 1.373382723203102 0.0
2.860266039499884 1.862282581689995 0.0
2.139733960500116 0.1377174183100045 0.0
1.257473476073173 1.479081588926576 0.0
3.731624273377778 0.5208146070195914 0.0
2.115038607594509 0.9238947313642476 0.0
0.2734661728051435 1.270630989444945 0.0
4.726533827194856 0.7293690105550548 0.0
2.699965708650878 1.465007479364728 0.0
2.298365077320068 0.5341069340550768 0.0
2.510583000486659 0.7602856732279889 0.0
3.370667741214912 0.8392397884376295 0.0
3.067541604254986 0.8806352314757129 0.0
2.90073732483139 1.443475210354718 0.0
2.264071206758208 0.9501943312745662 0.0
2.278663096491763 0.7489636980394857 0.0
1.952511813454414 1.110576661474517 0.0
2.744352083917141 0.687787375233183 0.0
1.566252941493004 1.383661493752942 0.0
2.437660520624072 0.8703573012735125 0.0
2.904826075218911 1.261819176983655 0.0
2.305967018083784 1.391390767447104 0.0
2.105729326736999 0.8145314366030645 0.0
2.428967188976762 1.236966721617647 0.0
3.060475488407204 0.1442825789852263 0.0
1.934979199332455 1.852811714602595 0.0
2.095475260770118 0.4348597444661615 0.0
2.914777085426361 1.759093454264707 0.0
2.084827330449114 0.2414252069642749 0.0
2.207128288422204 1.315477221019454 0.0
2.658751426439581 0.5773232450959589 0.0
2.612380011409894 1.114144853433198 0.0
2.897371573983894 1.569769587751228 0.0
0.5001010519014215 1.226918930408543 0.0
4.499898948098578 0.7730810695914568 0.0
2.753086810589338 1.690362801865437 0.0
2.246793053318422 0.3097947118702842 0.0
3.391580469276819 0.5673489147038103 0.0
3.035026488699165 0.6179797538177514 0.0
2.449819864663089 1.055109427275025 0.0
2.27653308928065 1.054384468582349 0.0
2.794675693196835 1.418106589018447 0.0
2.778866980525137 1.083577784614141 0.0
2.244522876020972 0.1116738824400324 0.0
2.755477123979027 1.888326117559968 0.0
2.323887028942199 0.8604475039748537 0.0
2.204900210979926 1.747483509451062 0.0
2.794853185869193 0.2526222191943996 0.0
2.320767315286541 1.530441598510029 0.0
1.550828143561484 1.606851581022188 0.0
2.796593663741882 1.288013595743853 0.0
3.436143660897262 0.3940652474171653 0.0
2.682379445750112 0.4493639922429763 0.0
3.242313228541417 0.154845696987206 0.0
1.75965289115187 1.844031320058407 0.0
1.3642341383496 1.159631408929946 0.0
1.980047380836635 1.36362624976796 0.0
2.070303834520089 1.451946835577872 0.0
2.55866460451515 1.229901920133861 0.0
4.26844523535139 0.499131154814159 0.0
0.7315547646486098 1.500868845185841 0.0
2.716116351489881 1.570657861970705 0.0
2.283245236086922 0.4299499540566049 0.0
4.50573905238033 0.204273435313806 0.0
0.4942609476196695 1.795726564686194 0.0
3.605070352001925 0.644396355247622 0.0
3.171946621948212 0.9019117497969773 0.0
3.40309695214227 0.1789624633199048 0.0
1.59690304785773 1.821037536680094 0.0
4.776800700354217 0.5074282293075529 0.0
0.2231992996457826 1.492571770692447 0.0
1.293020597407515 1.839015256431498 0.0
3.706979402592485 0.1609847435685022 0.0
1.398281395597716 1.351857389185529 0.0
2.880181082677912 0.1378504756446906 0.0
2.119200639021148 1.861833157788504 0.0
2.408646939494887 0.2452196658480275 0.0
2.591353060505113 1.754780334151973 0.0
1.146570081566377 1.160946826906423 0.0
3.853429918433624 0.8390531730935771 0.0
2.920846657438631 1.149071660619678 0.0
2.101132283911678 1.226382957654413 0.0
2.903672483971366 0.7774662795474147 0.0
2.516386521935266 0.571665255016536 0.0
2.475412447847437 1.444413760085193 0.0
2.903041575637174 0.5510905120278109 0.0
3.666476299189054 0.8553176740217776 0.0
1.558137053653031 1.119389262041809 0.0
3.867595456948903 0.1475874639835382 0.0
1.132404543051097 1.852412536016462 0.0
2.635017655944937 0.9730281566682446 0.0
2.436667490139274 1.901171080200935 0.0
2.563332509860726 0.09882891979906516 0.0
2.091598337090247 1.040423151014485 0.0
0.8316881289508771 1.172977685150089 0.0
4.168311871049123 0.827022314849911 0.0
3.648565743761548 0.3681286963687066 0.0
1.355037313653319 1.636865536133179 0.0
2.58412781071005 1.576586299624529 0.0
2.41587218928995 0.4234137003754711 0.0
2.083716468691946 0.6634832154935376 0.0
1.843942294678346 1.256771801786488 0.0
[...]
POINT_DATA 380

VECTORS Velocity float
0.0000000000000000 0.0000000000000000 0.0
0.0000000000000000 0.0000000000000000 0.0
0.0000000000000000 0.0000000000000000 0.0
0.0000000000000000 0.0000000000000000 0.0
0.0000000000000000 0.0000000000000000 0.0
0.9186851149105615 -0.1330574327732985 0.0
0.0000000000000000 0.0000000000000000 0.0
0.0000000000000000 0.0000000000000000 0.0
0.0000000000000000 0.0000000000000000 0.0
0.0000000000000000 0.0000000000000000 0.0
0.0000000000000000 0.0000000000000000 0.0
0.0000000000000000 0.0000000000000000 0.0
0.0000000000000000 0.0000000000000000 0.0
0.0000000000000000 0.0000000000000000 0.0
0.0000000000000000 0.0000000000000000 0.0
0.0000000000000000 0.0000000000000000 0.0
0.0000000000000000 0.0000000000000000 0.0
0.0000000000000000 0.0000000000000000 0.0
0.0000000000000000 0.0000000000000000 0.0
0.0000000000000000 0.0000000000000000 0.0
0.0000000000000000 0.0000000000000000 0.0
0.0000000000000000 0.0000000000000000 0.0
0.0000000000000000 0.0000000000000000 0.0
0.0000000000000000 0.0000000000000000 0.0
0.0000000000000000 0.0000000000000000 0.0
0.0000000000000000 0.0000000000000000 0.0
0.0000000000000000 0.0000000000000000 0.0
0.0000000000000000 0.0000000000000000 0.0
0.0000000000000000 0.0000000000000000 0.0
0.0000000000000000 0.0000000000000000 0.0
0.0000000000000000 0.0000000000000000 0.0
0.0000000000000000 0.0000000000000000 0.0
0.0000000000000000 0.0000000000000000 0.0
0.0000000000000000 0.0000000000000000 0.0
0.0000000000000000 0.0000000000000000 0.0
0.0000000000000000 0.0000000000000000 0.0
0.0000000000000000 0.0000000000000000 0.0
0.0000000000000000 0.0000000000000000 0.0
0.0000000000000000 0.0000000000000000 0.0
0.0000000000000000 0.0000000000000000 0.0
0.0000000000000000 0.0000000000000000 0.0
0.0000000000000000 0.0000000000000000 0.0
0.0000000000000000 0.0000000000000000 0.0
1.1551783230645394 0.3642265244513915 0.0
0.7957331363674047 0.0634485202019004 0.0
1.1395835878531588 -0.2964905230261667 0.0
0.0000000000000000 0.0000000000000000 0.0
0.0000000000000000 0.0000000000000000 0.0
0.0000000000000000 0.0000000000000000 0.0
0.0000000000000000 0.0000000000000000 0.0
0.0000000000000000 0.0000000000000000 0.0
0.0000000000000000 0.0000000000000000 0.0
0.0000000000000000 0.0000000000000000 0.0
0.0000000000000000 0.0000000000000000 0.0
0.0000000000000000 0.0000000000000000 0.0
0.0000000000000000 0.0000000000000000 0.0
0.0000000000000000 0.0000000000000000 0.0
0.0000000000000000 0.0000000000000000 0.0
0.0000000000000000 0.0000000000000000 0.0
0.0000000000000000 0.0000000000000000 0.0
0.0000000000000000 0.0000000000000000 0.0
0.0000000000000000 0.0000000000000000 0.0
0.0000000000000000 0.0000000000000000 0.0
0.0000000000000000 0.0000000000000000 0.0
0.0000000000000000 0.0000000000000000 0.0
0.0000000000000000 0.0000000000000000 0.0
0.0000000000000000 0.0000000000000000 0.0
0.0000000000000000 0.0000000000000000 0.0
0.0000000000000000 0.0000000000000000 0.0
0.0000000000000000 0.0000000000000000 0.0
0.0000000000000000 0.0000000000000000 0.0
0.0000000000000000 0.0000000000000000 0.0
0.0000000000000000 0.0000000000000000 0.0
0.0000000000000000 0.0000000000000000 0.0
0.0000000000000000 0.0000000000000000 0.0
0.0000000000000000 0.0000000000000000 0.0
0.0000000000000000 0.0000000000000000 0.0
0.0000000000000000 0.0000000000000000 0.0
0.0000000000000000 0.0000000000000000 0.0
1.0000000000000000 0.0000000000000000 0.0
1.0000000000000000 0.0000000000000000 0.0
1.0000000000000000 0.0000000000000000 0.0
0.9296997177358264 -0.8451302571422517 0.0
0.8129997025445530 -0.8716942119480660 0.0
1.5193780612604830 -0.2546291993033167 0.0
1.4615984605100898 -0.2507915368860591 0.0
0.5936131522666450 -1.2047331002721546 0.0
0.2578912308215840 -0.2066472727841502 0.0
0.2169323831054552 -0.1935795225208447 0.0
0.5781626915576458 -1.2237280121274756 0.0
1.5745039899464968 -0.0760099155825845 0.0
1.6112633863006263 -0.1201972447006874 0.0
0.2726022003530811 -0.6862320886234039 0.0
0.2509872589019572 -0.5962758403246297 0.0
1.1682357192538557 -0.9885986071284982 0.0
0.7035268807407917 -0.2084236848498471 0.0
0.6585878512872206 -0.1953275513736075 0.0
1.1619573071262310 -0.8989636034482041 0.0
1.6001579375769237 -0.0196892679619215 0.0
1.5975329649726817 -0.0092337884697712 0.0
1.4942086289050698 -0.3464285562174412 0.0
1.4994314310081573 -0.0567839237306782 0.0
1.4335036142339330 -0.3063873376142560 0.0
0.2590663806940743 -0.8101979247451000 0.0
1.5180311135595139 -0.0669431292698688 0.0
1.5836175803132782 0.0097529920521528 0.0
1.5334861951419183 0.0359719564029582 0.0
1.2938131211842516 -0.5015479581551269 0.0
0.7041066095870719 -1.2183024337442667 0.0
1.1912040338821646 -0.4608814862684151 0.0
0.6925456641703990 -1.2283937033311343 0.0
0.0484275886591242 -0.0642162460311077 0.0
0.0395225025768910 -0.0541086906232191 0.0
1.1917085592115426 -0.0807708949781757 0.0
1.1133251080030222 -0.0923842777139228 0.0
0.1037608386619470 -0.3116730087021216 0.0
0.0737502614427874 -0.2479560425801121 0.0
0.1741984120684586 -0.7301695320301484 0.0
0.4983025243414282 -0.9775430237295618 0.0
0.4503977101545646 -0.5606617016989615 0.0
0.5245129704276761 -0.5724025594943171 0.0
1.3931006015250686 -0.0126647312656101 0.0
1.3077104168194151 -0.0808508382955899 0.0
0.8071940672473298 -0.1296309432365646 0.0
0.8790715010389714 -0.1317812446893576 0.0
0.5539380690965995 -0.9689311276792337 0.0
0.6249357524700302 -1.0800873398688928 0.0
0.2920199942359430 -0.0364133751410089 0.0
0.2673792739895813 -0.0407362389731690 0.0
1.2771286310107086 0.0117009277944991 0.0
1.2777400032151460 0.0074657975600249 0.0
0.4688128764345120 -1.0620486401283817 0.0
1.2567946699038099 0.0020558650782058 0.0
0.8877292007254057 -1.1047625603572406 0.0
0.7866911730876280 -0.4925120318239304 0.0
0.7945676811364706 -0.5344798809538536 0.0
0.0314379376214414 -0.3427887293532466 0.0
1.5118939344109421 -0.5419476068135155 0.0
0.0639084167765781 -0.3732799119774923 0.0
1.3446615343294359 0.0064314544999223 0.0
1.3451227325144557 0.0149043669295688 0.0
1.0900379401149738 -0.7285249925409856 0.0
1.3761520763645403 -0.0384231787448412 0.0
1.3734632529913451 -0.0565251091385985 0.0
0.0406409277798520 -0.1086155092320317 0.0
0.0352551989239236 -0.0900181436305637 0.0
0.7915274425244154 -0.0085626157742728 0.0
0.7741137829528604 -0.0274823547952750 0.0
1.2362448574690579 -0.5566970351307881 0.0
1.2449452004712502 -0.0997210222524631 0.0
1.4530594822013825 -0.5522587699482060 0.0
1.5356359982803549 -0.0926073512280144 0.0
1.2096392779666136 -0.0649732052756830 0.0
0.6705807367972467 -1.2840862911183735 0.0
0.9557257748352009 -0.9856016598972289 0.0
0.8133610132150623 -1.2472917619244825 0.0
1.0665326324477782 -0.0553840267588365 0.0
0.5995953497283252 -0.9182047088602850 0.0
1.0658870385579235 -0.0517929369894320 0.0
1.0678255482697756 -0.0527381487365072 0.0
1.5801889294355851 -0.0648252801209943 0.0
0.0877601391872481 -0.0378102236679349 0.0
0.0764424441030797 -0.0344072600626759 0.0
1.0561806832340304 -0.9217193252674596 0.0
0.0404822695725581 -0.1817443471626139 0.0
0.4854371285585861 -0.7526450914799873 0.0
0.2471099181246088 -0.7577052997277340 0.0
1.5673131134282730 -0.1592367650619124 0.0
1.2290560673109805 -0.2188981453748967 0.0
1.2102404703017355 -0.2003266866758673 0.0
1.1915564546691155 -0.2691687381350302 0.0
0.3971533591630894 -0.2284257397886416 0.0
0.4382556063972261 -0.2258815602153842 0.0
1.2760041669522251 -0.2946407395953868 0.0
1.0451116807483491 -0.0267336180935545 0.0
1.0429325567282788 -0.0275599835671647 0.0
0.9369586880553114 -0.1125421453110780 0.0
1.0145353029994597 -0.1169510571573487 0.0
0.2700848671903034 -0.0541712581986693 0.0
0.2565327453513694 -0.0504078789652523 0.0
0.8341269603194958 -0.0179733383571206 0.0
1.5836757267280290 -0.1471183714477758 0.0
0.0075501414727223 -0.0177123368714987 0.0
0.0062758070976542 -0.0142809929605525 0.0
1.5372999924501529 -0.0975703158268649 0.0
1.5699429113114511 -0.1293760962596567 0.0
0.1407607589825880 -0.4762476561181032 0.0
1.0959926242458544 0.2306257657426883 0.0
1.0936301051566779 0.2311034961274887 0.0
0.2704475580946681 -0.5061583174614925 0.0
0.2250067487990072 -0.4290774288410434 0.0
0.6828929716369770 -1.0723253377418513 0.0
0.9325398400125714 -0.0545993507961916 0.0
0.8761980361032377 -0.1737480750780521 0.0
0.0345516874264429 -0.1735719664701333 0.0
0.4716932543236520 -1.0908367811784514 0.0
0.2676558577422695 -0.8187512162705278 0.0
0.7735252164166031 -0.1215728274098995 0.0
1.1669463937349314 -0.8155215741699016 0.0
1.5613584653789148 -0.0477412843874999 0.0
0.5837809232336778 -1.1685234310086285 0.0
0.0316481801044969 -0.3032452779151805 0.0
1.1323436781866294 -0.6879352419372419 0.0
0.0707903411116702 -0.2805487089733913 0.0
0.8264398743649448 -1.0824225222915382 0.0
0.4049526927791497 -0.0213499036746079 0.0
0.4322205841474208 -0.0191438867371874 0.0
0.0332704725006872 -0.0858843906324632 0.0
0.0121872855545451 -0.0300286782998432 0.0
0.0102178191710647 -0.0241922877503428 0.0
1.2972953052778839 -0.7657576444153260 0.0
0.9880407178132738 -0.6726247588357563 0.0
0.6006285456783589 -1.2175614740322636 0.0
0.0223580405403542 -0.1103216007234041 0.0
0.8659810423941696 0.1645796849461557 0.0
0.8386412010816259 0.1312778640011930 0.0
0.1309188501226455 -0.1637639396429537 0.0
0.1097201898227483 -0.1419568548821945 0.0
1.6437986697809781 -0.1223973741362453 0.0
1.6095290180597630 -0.3144756391544420 0.0
0.6816055916815710 -1.2710235402889847 0.0
0.7112557634183168 -1.1300574119395110 0.0
0.1355685515598147 -0.4105988261202157 0.0
0.4229994253221775 -1.0541874451527942 0.0
0.0263028081599393 -0.0229425359892471 0.0
0.0312508439936444 -0.0265998291021842 0.0
0.4602104689531968 -1.0550548600925014 0.0
0.6498859306260488 -0.1402586732887165 0.0
0.6040602712797367 -0.1249510225510807 0.0
1.0045039030508243 -0.4505900916762895 0.0
1.3586843889444502 -0.0289257164215932 0.0
0.1581037909850988 -0.5811108780253624 0.0
1.3013114362424432 -0.0661023686250035 0.0
0.9461260337090377 -0.4260895920924447 0.0
0.5001226978275203 -0.0333145201103702 0.0
0.5289885113884634 -0.0358930765781711 0.0
0.8947575509469332 -0.0192182745146178 0.0
1.5440962282545467 -0.3383519998198941 0.0
1.4796637846656968 -0.4056765649838328 0.0
0.5990808494530884 -1.0973741447574177 0.0
1.6000723125521732 -0.0535704489821807 0.0
1.5899157162453752 -0.0451403745958603 0.0
0.1983094659681940 -0.2972081388708576 0.0
0.1660836198091287 -0.2622024548247482 0.0
0.7800094260493969 -0.1433662288232327 0.0
0.8008388170902851 -0.1598522389874294 0.0
1.5614558121576836 -0.0781931453405201 0.0
0.5603858081547994 -0.0548073053961513 0.0
0.6299254797811742 -0.0793769150509414 0.0
0.6585996503389032 -0.0800687755913169 0.0
1.2611527718063422 0.0575627745995290 0.0
1.2108941006071385 0.0466767840612492 0.0
0.6380892071318078 0.0333223461073888 0.0
0.6381387830363386 0.0299860799500208 0.0
1.4571268718366317 -0.0510715516836428 0.0
0.3093040899267172 -0.0563267544288539 0.0
0.3318629108741257 -0.0609670836373845 0.0
0.2108840436683223 -0.1144579489962468 0.0
0.2363309325048502 -0.1197668900983700 0.0
0.7329826489318387 0.0586142724433327 0.0
0.7342670099977882 0.1056443225765344 0.0
0.0466618964867387 -0.3364496411553797 0.0
1.3139903752998734 -0.6933296387651854 0.0
1.3500263243419741 -0.7197075186132358 0.0
0.6750428716174146 -0.6930149927776392 0.0
0.7830606387797544 -0.6325164003861059 0.0
1.4411962074803004 -0.4211748720095623 0.0
0.6081264913638208 0.0247590242068260 0.0
0.6289625804843284 -0.0153419764589433 0.0
0.5362882608753674 -0.1094114617948294 0.0
0.5387027943201979 -0.1068911374214123 0.0
0.6971745644520754 -1.2886709322851286 0.0
0.0904551604897381 -0.0261228142457919 0.0
0.0834066836413028 -0.0268262592293902 0.0
0.5623184826793977 -0.6962420395607773 0.0
0.6720019003732484 -0.0979463861131478 0.0
0.6704744162846320 -0.1057517757757766 0.0
1.3066868969513117 -0.1416315154696591 0.0
1.3135177326818579 -0.1127886455879302 0.0
0.4474208167439259 -0.3379460797891349 0.0
0.3787586086128225 -0.3294665142686038 0.0
0.0051146312078143 -0.1439631514705753 0.0
1.3651733418815399 -0.1375244918363481 0.0
0.6031085092111367 -0.7625881193758542 0.0
0.1108446416463681 -0.3979591868557761 0.0
0.4348114246420907 -0.7510806940991793 0.0
0.9731620458249989 -0.9392558978403215 0.0
0.9079532086085399 -1.1385215600720611 0.0
1.4974270912983092 -0.0661796133140884 0.0
1.4929973978053228 -0.0971022596226572 0.0
0.6571002718537191 -1.2238457170413588 0.0
1.0531848425178600 -0.2822774151827900 0.0
0.9961716497339524 -0.2309308111172191 0.0
0.4995677539889598 -0.1755885614958931 0.0
0.4727288858453069 -0.1799135572233168 0.0
1.5620318843744441 -0.1092240640768531 0.0
1.0086811560189812 -1.1097598668269544 0.0
0.4213330226180324 -1.0691403071059868 0.0
1.2138840776757680 -0.1675490742390232 0.0
1.5660876636293732 -0.0925439779184722 0.0
1.5756316878960908 -0.0980255544514538 0.0
1.2928620457858806 -0.1694281690112580 0.0
0.0882448752545057 -0.0122646260502587 0.0
0.0982635690134208 -0.0107449663758424 0.0
0.4213959605033122 0.0687953757637264 0.0
1.3633911986364089 -0.1366631885732520 0.0
1.3199838398107011 0.0383895567490051 0.0
0.4448630426384477 -0.9253264251744112 0.0
0.0960550432963481 -0.2168326794165411 0.0
0.0755079654634706 -0.1771688483646588 0.0
0.1353330771794074 -0.0831985858766658 0.0
0.1161720177750093 -0.0744518280859922 0.0
0.3668032953239634 -0.6481526251458909 0.0
0.0114034929546493 -0.1076664156777394 0.0
0.9340135591872128 -0.9067750128760860 0.0
0.5211259959832173 0.0366039067439029 0.0
0.5040372339490063 0.0190521865440095 0.0
1.4812060672692906 -0.0484085267347675 0.0
1.4810692027932870 -0.0599361327012297 0.0
0.9566076150315819 -1.0741098239461053 0.0
1.6068873343959620 -0.1634792040534220 0.0
0.4306405461906472 -0.0487844656149068 0.0
0.0111481202381032 -0.0367944074220351 0.0
0.0073941773509663 -0.0300833677919299 0.0
0.3787213969294286 -0.8102462198570265 0.0
0.0157141494833804 -0.0948547105362803 0.0
0.7409946681523771 -0.9859997968147789 0.0
1.4552509026359191 -0.1366232228525953 0.0
0.6397879217711010 -0.4446126185459733 0.0
0.5869405316744681 -0.4554919560189936 0.0
0.6489807432319802 -1.2555750897703482 0.0
0.6698896959756254 0.0780412411538090 0.0
0.6672640802065425 0.0808052330983159 0.0
0.8106341023983225 -1.2012186209014708 0.0
0.1305172381787014 -0.5704973613787524 0.0
0.1088213254009747 -0.4412382961488338 0.0
0.0099639811916073 -0.1046568827244218 0.0
0.8421317832244914 0.0649328031642636 0.0
0.8047569377989404 0.0969212692342304 0.0
0.8330181524501932 -0.0507523238449914 0.0
0.8045924190991385 -0.0670028399394765 0.0
0.3184069978460877 -0.8747624849498978 0.0
0.6341765852299404 -0.1434623525023219 0.0
0.7971392619301485 -1.0690551076574089 0.0
1.3798573188692789 -0.7746401239742176 0.0
0.5294256633422549 0.0852030846382490 0.0
1.4803650769605667 -0.0122578039359612 0.0
1.4842881853130703 -0.0081635359782196 0.0
1.0387136432562512 -0.9768997372428995 0.0
0.7538911494052631 -1.2205226462385501 0.0
1.3239964234891064 -0.1499487580395150 0.0
0.7246385923081550 -1.2284589735199101 0.0
0.0898551346868591 -0.3767541360758263 0.0
1.1748744636834045 -0.0503680685212270 0.0
0.3746852549478839 -0.8953696512479968 0.0
1.6569372138962681 -0.0891975032756683 0.0
0.4123965849931724 -0.0054164898179454 0.0
1.5813575451978488 -0.0860503529491035 0.0
1.5503910297453485 -0.0992804990885987 0.0
-0.0067162393318732 -0.0013846725253093 0.0
-0.0080334783735422 -0.0018937469559054 0.0
0.5347283338992866 0.0430380528027463 0.0
0.3397311152419154 -0.0414852385273697 0.0
-0.0036612088356060 -0.0054146342745312 0.0
-0.0040152406528940 -0.0066044317800099 0.0
0.5570038095687454 -0.0346556961345807 0.0
0.6464557490726546 -0.9273628412547196 0.0
0.5591488854521135 -0.0341169694614696 0.0
0.5533733013917546 -0.0270377138339270 0.0
0.6772980432044655 -0.3325259902673128 0.0
0.7360511935180261 -0.3305861416692660 0.0
0.6464420599154806 -0.8143316429989214 0.0
0.2849728715715704 -0.3843972657236879 0.0
0.3354216599801516 -0.4360058158642076 0.0
-0.0085898065388615 -0.0037315577056146 0.0
-0.0071127379849129 -0.0028614593602120 0.0
1.2700550814047993 -0.4513889584511142 0.0
1.3676876417460211 -0.6542730827782599 0.0
0.9561670967373032 -0.6520824332789046 0.0
0.7338680702802505 -0.4169624820876336 0.0
