# vtk DataFile Version 3.0
LucasCarvalhoTCC Results
ASCII

DATASET POLYDATA
FIELD FieldData 1
TIME 1 1 double
2.0

POINTS 380 float
0.0 2.0 0.0
2.0 2.0 0.0
3.0 2.0 0.0
3.0 1.0 0.0
5.0 1.0 0.0
5.0 0.0 0.0
3.0 0.0 0.0
2.0 0.0 0.0
2.0 1.0 0.0
0.0 1.0 0.0
0.2643114543905713 2.0 0.0
0.5169795502969444 2.0 0.0
0.7585171880292413 2.0 0.0
0.9894145836600268 2.0 0.0
1.210140497826619 2.0 0.0
1.421143008568911 2.0 0.0
1.622850459538253 2.0 0.0
1.815672303789548 2.0 0.0
2.188552664328277 2.0 0.0
2.359329284173903 2.0 0.0
2.514005696104645 2.0 0.0
2.654099788331341 2.0 0.0
2.780986322989182 2.0 0.0
2.895910470953052 2.0 0.0
3.0 1.9 0.0
3.0 1.8 0.0
3.0 1.7 0.0
3.0 1.6 0.0
3.0 1.5 0.0
3.0 1.4 0.0
3.0 1.3 0.0
3.0 1.2 0.0
3.0 1.1 0.0
3.105031513416626 1.0 0.0
3.221094637894669 1.0 0.0
3.349348047908936 1.0 0.0
3.491072094154001 1.0 0.0
3.647681638607018 1.0 0.0
3.820740106959136 1.0 0.0
4.011975186625977 1.0 0.0
4.223295996958671 1.0 0.0
4.456812096249916 1.0 0.0
4.714854728122151 1.0 0.0
5.0 0.7500000000000003 0.0
5.0 0.5000000000000012 0.0
5.0 0.2500000000000011 0.0
4.735688545609428 0.0 0.0
4.483020449703056 0.0 0.0
4.241482811970759 0.0 0.0
4.010585416339973 0.0 0.0
3.789859502173381 0.0 0.0
3.578856991431089 0.0 0.0
3.377149540461747 0.0 0.0
3.184327696210452 0.0 0.0
2.811447335671723 0.0 0.0
2.640670715826097 0.0 0.0
2.485994303895355 0.0 0.0
2.345900211668659 0.0 0.0
2.219013677010818 0.0 0.0
2.104089529046948 0.0 0.0
2.0 0.1 0.0
2.0 0.2 0.0
2.0 0.3 0.0
2.0 0.4 0.0
2.0 0.5 0.0
2.0 0.6 0.0
2.0 0.7 0.0
2.0 0.8 0.0
2.0 0.9 0.0
1.894968486583374 1.0 0.0
1.77890536210533 1.0 0.0
1.650651952091063 1.0 0.0
1.508927905845999 1.0 0.0
1.352318361392982 1.0 0.0
1.179259893040864 1.0 0.0
0.9880248133740233 1.0 0.0
0.7767040030413299 1.0 0.0
0.5431879037500846 1.0 0.0
0.2851452718778493 1.0 0.0
0.0 1.25 0.0
0.0 1.499999999999999 0.0
0.0 1.749999999999999 0.0
2.426045913985508 1.348290599604586 0.0
2.562221387987337 0.6558377602558874 0.0
1.966703786708101 1.492474555319359 0.0
3.033486484223225 0.4973568340887861 0.0
2.371610747520728 0.97814425147097 0.0
2.648098402859118 1.648016516253387 0.0
2.351901597140882 0.3519834837466129 0.0
2.694321138879857 1.061432730999581 0.0
1.441644339445862 1.496646809257773 0.0
3.554831642064292 0.501744031268764 0.0
2.720742750697982 1.350625068836981 0.0
2.282037541072919 0.639419348257894 0.0
2.813390610951134 0.7911761792959446 0.0
2.310700631729327 1.679155452525512 0.0
2.688751528716965 0.3206838402855661 0.0
2.211165393176843 1.213708510063781 0.0
0.9449004170027906 1.496357611130017 0.0
4.05509958299721 0.5036423888699835 0.0
3.025501657200047 0.7528388163714679 0.0
1.714778657098197 1.300039655550584 0.0
1.958264922640818 1.245975101752485 0.0
2.206386339371814 0.8500000000000001 0.0
3.336706349465057 0.704398544338507 0.0
4.529565928894533 0.555233644424822 0.0
0.4704340711054673 1.444766355575178 0.0
2.186983355180128 1.461437746541105 0.0
2.553715879020142 0.8859594914241276 0.0
2.782212276375736 0.5474565156445963 0.0
2.500206140967324 1.148517546040804 0.0
2.803373162317882 1.783880361314082 0.0
2.196626837682118 0.2161196386859174 0.0
1.735623536927746 1.664129737658362 0.0
3.268802735993943 0.3358439745752063 0.0
2.799454045372581 1.51553500056848 0.0
2.18762015375897 0.4992029885790829 0.0
2.813478812948685 1.18678600527921 0.0
2.400994471757771 0.7612313552289275 0.0
2.405444563947088 0.5311203927463914 0.0
2.583195945356847 1.473216966241769 0.0
3.734210872783077 0.7260959952797862 0.0
1.256500988572085 1.265010492624376 0.0
2.938353069321001 0.2909212553641365 0.0
2.061245308362322 1.709221243241415 0.0
2.182240881432738 1.001025052084926 0.0
2.830214026212788 0.9796244234047695 0.0
2.49023894829247 1.787687811117195 0.0
2.50976105170753 0.2123121888828049 0.0
1.194806886820808 1.686899295332255 0.0
3.805193113179192 0.3131007046677451 0.0
2.655039231860651 1.208917360245127 0.0
1.493530449555064 1.231198576616718 0.0
2.345622594939228 1.152685186835846 0.0
2.41380980106708 1.521513100394759 0.0
2.58979513084283 0.4863225267637531 0.0
2.135472648094309 0.7246460081196311 0.0
2.912574128751924 0.660128736186259 0.0
2.866043013605144 1.353074765380587 0.0
0.6928324624395237 1.69170809873467 0.0
4.307167537560476 0.3082919012653306 0.0
2.071506740582853 1.128535871978767 0.0
0.6831902494895832 1.302725441792086 0.0
4.316809750510417 0.6972745582079137 0.0
2.85534466702333 1.667491236848871 0.0
2.141886244104996 0.336139391754002 0.0
1.447743165823209 1.773242752731258 0.0
3.554386585610856 0.224002072703283 0.0
2.96485662756902 0.8593908564801968 0.0
3.240425509636175 0.8099760775594669 0.0
2.088410584923666 1.339747073830609 0.0
3.277530767974837 0.4939020807639749 0.0
3.534313505233912 0.7935179117986669 0.0
2.546683861402325 1.011736398479819 0.0
2.664793655038503 0.758149595673951 0.0
2.7009922066801 0.9086021996324817 0.0
1.844652141496971 1.153158997353228 0.0
2.575910747861113 1.316876286520138 0.0
3.994328863599566 0.7454319923658932 0.0
1.005671136400434 1.254568007634107 0.0
1.722192091537185 1.482888323667831 0.0
2.644751416415203 1.850904811198953 0.0
2.355248583584797 0.1490951888010467 0.0
2.31560379269905 1.25706851182614 0.0
2.129697972466254 0.5864366202645266 0.0
2.417220568140766 0.6397160301847872 0.0
2.867945749403976 1.069821281672812 0.0
3.182303046124178 0.6739667261124369 0.0
4.702774994215813 0.2953677284017739 0.0
0.2972250057841874 1.704632271598226 0.0
2.90043748182062 0.4316738443013928 0.0
2.486081387366873 0.3514585853722887 0.0
2.513918612633127 1.648541414627711 0.0
2.086778258621772 1.563111332603502 0.0
4.025359850459486 0.2638518716814435 0.0
0.9746401495405139 1.736148128318556 0.0
3.116389458098145 0.2933651166122753 0.0
1.885410353788165 1.707062521230272 0.0
2.327134732627959 1.833634230002939 0.0
2.672865267372041 0.1663657699970617 0.0
1.675899428547673 1.15999616666306 0.0
1.858973331615206 1.373382723203102 0.0
2.860266039499884 1.862282581689995 0.0
2.139733960500116 0.1377174183100045 0.0
1.257473476073173 1.479081588926576 0.0
3.731624273377778 0.5208146070195914 0.0
2.115038607594509 0.9238947313642476 0.0
0.2734661728051435 1.270630989444945 0.0
4.726533827194856 0.7293690105550548 0.0
2.699965708650878 1.465007479364728 0.0
2.298365077320068 0.5341069340550768 0.0
2.510583000486659 0.7602856732279889 0.0
3.370667741214912 0.8392397884376295 0.0
3.067541604254986 0.8806352314757129 0.0
2.90073732483139 1.443475210354718 0.0
2.264071206758208 0.9501943312745662 0.0
2.278663096491763 0.7489636980394857 0.0
1.952511813454414 1.110576661474517 0.0
2.744352083917141 0.687787375233183 0.0
1.566252941493004 1.383661493752942 0.0
2.437660520624072 0.8703573012735125 0.0
2.904826075218911 1.261819176983655 0.0
2.305967018083784 1.391390767447104 0.0
2.105729326736999 0.8145314366030645 0.0
2.428967188976762 1.236966721617647 0.0
3.060475488407204 0.1442825789852263 0.0
1.934979199332455 1.852811714602595 0.0
2.095475260770118 0.4348597444661615 0.0
2.914777085426361 1.759093454264707 0.0
2.084827330449114 0.2414252069642749 0.0
2.207128288422204 1.315477221019454 0.0
2.658751426439581 0.5773232450959589 0.0
2.612380011409894 1.114144853433198 0.0
2.897371573983894 1.569769587751228 0.0
0.5001010519014215 1.226918930408543 0.0
4.499898948098578 0.7730810695914568 0.0
2.753086810589338 1.690362801865437 0.0
2.246793053318422 0.3097947118702842 0.0
3.391580469276819 0.5673489147038103 0.0
3.035026488699165 0.6179797538177514 0.0
2.449819864663089 1.055109427275025 0.0
2.27653308928065 1.054384468582349 0.0
2.794675693196835 1.418106589018447 0.0
2.778866980525137 1.083577784614141 0.0
2.244522876020972 0.1116738824400324 0.0
2.755477123979027 1.888326117559968 0.0
2.323887028942199 0.8604475039748537 0.0
2.204900210979926 1.747483509451062 0.0
2.794853185869193 0.2526222191943996 0.0
2.320767315286541 1.530441598510029 0.0
1.550828143561484 1.606851581022188 0.0
2.796593663741882 1.288013595743853 0.0
3.436143660897262 0.3940652474171653 0.0
2.682379445750112 0.4493639922429763 0.0
3.242313228541417 0.154845696987206 0.0
1.75965289115187 1.844031320058407 0.0
1.3642341383496 1.159631408929946 0.0
1.980047380836635 1.36362624976796 0.0
2.070303834520089 1.451946835577872 0.0
2.55866460451515 1.229901920133861 0.0
4.26844523535139 0.499131154814159 0.0
0.7315547646486098 1.500868845185841 0.0
2.716116351489881 1.570657861970705 0.0
2.283245236086922 0.4299499540566049 0.0
4.50573905238033 0.204273435313806 0.0
0.4942609476196695 1.795726564686194 0.0
3.605070352001925 0.644396355247622 0.0
3.171946621948212 0.9019117497969773 0.0
3.40309695214227 0.1789624633199048 0.0
1.59690304785773 1.821037536680094 0.0
4.776800700354217 0.5074282293075529 0.0
0.2231992996457826 1.492571770692447 0.0
1.293020597407515 1.839015256431498 0.0
3.706979402592485 0.1609847435685022 0.0
1.398281395597716 1.351857389185529 0.0
2.880181082677912 0.1378504756446906 0.0
2.119200639021148 1.861833157788504 0.0
2.408646939494887 0.2452196658480275 0.0
2.591353060505113 1.754780334151973 0.0
1.146570081566377 1.160946826906423 0.0
3.853429918433624 0.8390531730935771 0.0
2.920846657438631 1.149071660619678 0.0
2.101132283911678 1.226382957654413 0.0
2.903672483971366 0.7774662795474147 0.0
2.516386521935266 0.571665255016536 0.0
2.475412447847437 1.444413760085193 0.0
2.903041575637174 0.5510905120278109 0.0
3.666476299189054 0.8553176740217776 0.0
1.558137053653031 1.119389262041809 0.0
3.867595456948903 0.1475874639835382 0.0
1.132404543051097 1.852412536016462 0.0
2.635017655944937 0.9730281566682446 0.0
2.436667490139274 1.901171080200935 0.0
2.563332509860726 0.09882891979906516 0.0
2.091598337090247 1.040423151014485 0.0
0.8316881289508771 1.172977685150089 0.0
4.168311871049123 0.827022314849911 0.0
3.648565743761548 0.3681286963687066 0.0
1.355037313653319 1.636865536133179 0.0
2.58412781071005 1.576586299624529 0.0
2.41587218928995 0.4234137003754711 0.0
2.083716468691946 0.6634832154935376 0.0
1.843942294678346 1.256771801786488 0.0
[...]
POINT_DATA 380

VECTORS Velocity float
0.0000000000000000 0.0000000000000000 0.0
0.0000000000000000 0.0000000000000000 0.0
0.0000000000000000 0.0000000000000000 0.0
0.0000000000000000 0.0000000000000000 0.0
0.0000000000000000 0.0000000000000000 0.0
0.9186817011475826 -0.1329631768246160 0.0
0.0000000000000000 0.0000000000000000 0.0
0.0000000000000000 0.0000000000000000 0.0
0.0000000000000000 0.0000000000000000 0.0
0.0000000000000000 0.0000000000000000 0.0
0.0000000000000000 0.0000000000000000 0.0
0.0000000000000000 0.0000000000000000 0.0
0.0000000000000000 0.0000000000000000 0.0
0.0000000000000000 0.0000000000000000 0.0
0.0000000000000000 0.0000000000000000 0.0
0.0000000000000000 0.0000000000000000 0.0
0.0000000000000000 0.0000000000000000 0.0
0.0000000000000000 0.0000000000000000 0.0
0.0000000000000000 0.0000000000000000 0.0
0.0000000000000000 0.0000000000000000 0.0
0.0000000000000000 0.0000000000000000 0.0
0.0000000000000000 0.0000000000000000 0.0
0.0000000000000000 0.0000000000000000 0.0
0.0000000000000000 0.0000000000000000 0.0
0.0000000000000000 0.0000000000000000 0.0
0.0000000000000000 0.0000000000000000 0.0
0.0000000000000000 0.0000000000000000 0.0
0.0000000000000000 0.0000000000000000 0.0
0.0000000000000000 0.0000000000000000 0.0
0.0000000000000000 0.0000000000000000 0.0
0.0000000000000000 0.0000000000000000 0.0
0.0000000000000000 0.0000000000000000 0.0
0.0000000000000000 0.0000000000000000 0.0
0.0000000000000000 0.0000000000000000 0.0
0.0000000000000000 0.0000000000000000 0.0
0.0000000000000000 0.0000000000000000 0.0
0.0000000000000000 0.0000000000000000 0.0
0.0000000000000000 0.0000000000000000 0.0
0.0000000000000000 0.0000000000000000 0.0
0.0000000000000000 0.0000000000000000 0.0
0.0000000000000000 0.0000000000000000 0.0
0.0000000000000000 0.0000000000000000 0.0
0.0000000000000000 0.0000000000000000 0.0
1.1554383174498595 0.3631033993429856 0.0
0.7957685994168078 0.0614946262684636 0.0
1.1393195420470419 -0.2975637422748790 0.0
0.0000000000000000 0.0000000000000000 0.0
0.0000000000000000 0.0000000000000000 0.0
0.0000000000000000 0.0000000000000000 0.0
0.0000000000000000 0.0000000000000000 0.0
0.0000000000000000 0.0000000000000000 0.0
0.0000000000000000 0.0000000000000000 0.0
0.0000000000000000 0.0000000000000000 0.0
0.0000000000000000 0.0000000000000000 0.0
0.0000000000000000 0.0000000000000000 0.0
0.0000000000000000 0.0000000000000000 0.0
0.0000000000000000 0.0000000000000000 0.0
0.0000000000000000 0.0000000000000000 0.0
0.0000000000000000 0.0000000000000000 0.0
0.0000000000000000 0.0000000000000000 0.0
0.0000000000000000 0.0000000000000000 0.0
0.0000000000000000 0.0000000000000000 0.0
0.0000000000000000 0.0000000000000000 0.0
0.0000000000000000 0.0000000000000000 0.0
0.0000000000000000 0.0000000000000000 0.0
0.0000000000000000 0.0000000000000000 0.0
0.0000000000000000 0.0000000000000000 0.0
0.0000000000000000 0.0000000000000000 0.0
0.0000000000000000 0.0000000000000000 0.0
0.0000000000000000 0.0000000000000000 0.0
0.0000000000000000 0.0000000000000000 0.0
0.0000000000000000 0.0000000000000000 0.0
0.0000000000000000 0.0000000000000000 0.0
0.0000000000000000 0.0000000000000000 0.0
0.0000000000000000 0.0000000000000000 0.0
0.0000000000000000 0.0000000000000000 0.0
0.0000000000000000 0.0000000000000000 0.0
0.0000000000000000 0.0000000000000000 0.0
0.0000000000000000 0.0000000000000000 0.0
1.0000000000000000 0.0000000000000000 0.0
1.0000000000000000 0.0000000000000000 0.0
1.0000000000000000 0.0000000000000000 0.0
0.8490083145420407 -0.7296455193844739 0.0
0.7530062207241801 -0.7400981844307423 0.0
1.4696504108292912 -0.2583250393055008 0.0
1.4099707492135853 -0.2592501594476205 0.0
0.5689752145848469 -1.1301373765153802 0.0
0.3371787676674629 -0.1993481637709827 0.0
0.3027795128665027 -0.2010131523017290 0.0
0.5501727800121977 -1.1694122305039527 0.0
1.5693365377672766 -0.0813177871301447 0.0
1.6033623971419495 -0.1130740776305545 0.0
0.2796688631453719 -0.6952135206536393 0.0
0.2601103672128424 -0.6503141293043782 0.0
1.1180242883128049 -1.0038647859390413 0.0
0.7230087976324560 -0.1804632165273360 0.0
0.6991502670053995 -0.1726573516780250 0.0
1.1245268900517833 -0.9076026083648593 0.0
1.5997449358033979 -0.0164953091706516 0.0
1.5971785770043097 -0.0061742481272307 0.0
1.4932263935704946 -0.3832236678396327 0.0
1.4970746452469224 -0.0847169077388205 0.0
1.4535987429170982 -0.3456565831111075 0.0
0.2402193881607767 -0.9257520617791321 0.0
1.5056156809820902 -0.0793639930711657 0.0
1.5838380190992629 0.0097592370269214 0.0
1.5335187681092282 0.0355873802004734 0.0
1.2159905520567369 -0.4717226393174551 0.0
0.6506066312723411 -1.0408749689942725 0.0
1.1189191814213806 -0.4226567354605897 0.0
0.6443459113845403 -1.0469619519696114 0.0
0.1097253980135281 -0.0662689161975155 0.0
0.0926855730530688 -0.0663478093059795 0.0
1.1854497280962850 -0.0806518158411614 0.0
1.1290636906227913 -0.0836938843208632 0.0
0.1422027770728005 -0.3689305380275704 0.0
0.1073597393951419 -0.3204953250917927 0.0
0.1554520554672734 -0.8285979855339429 0.0
0.4722318648714512 -0.9073126227958160 0.0
0.4746964918765527 -0.5241223373383069 0.0
0.5283067986955708 -0.5063290340797426 0.0
1.3873054230384341 -0.0112240235307998 0.0
1.3040288523260488 -0.0813135286627114 0.0
0.8321600122066520 -0.1230864588581611 0.0
0.8806459651082189 -0.1212467191420943 0.0
0.5730378773775628 -1.0903170940265496 0.0
0.6211439471997320 -1.1909284501429356 0.0
0.3488533990685719 -0.0271275382208066 0.0
0.3336363180027913 -0.0320710313192916 0.0
1.2805954423885197 0.0141164834144788 0.0
1.2815846569708300 0.0121471308859998 0.0
0.4452567220881890 -0.9696816465865183 0.0
1.2571144280978104 -0.0065256512155957 0.0
0.8370375676855389 -1.0261913684689294 0.0
0.7624978616488480 -0.4188899859931261 0.0
0.7814707107670924 -0.4560048896065119 0.0
-0.0043394467911237 -0.4491129817168548 0.0
1.4529121326217787 -0.5679347631256744 0.0
0.0571534704311049 -0.4622833940015675 0.0
1.3441718572979717 0.0067808634023135 0.0
1.3441110872091930 0.0155379179232287 0.0
1.1562345353351233 -0.8205303512133624 0.0
1.3765712852322030 -0.0382848568751627 0.0
1.3744921337118838 -0.0558445472561230 0.0
0.0939530121579960 -0.1292449452225135 0.0
0.0806487235998092 -0.1226126723816243 0.0
0.7953241839431129 -0.0091286033272994 0.0
0.7847022857822680 -0.0230096892156801 0.0
1.2829316979776078 -0.6235966973754959 0.0
1.2493487345577792 -0.1125815852219384 0.0
1.3977812732202863 -0.5690975333630804 0.0
1.5192100538223976 -0.0886424210832745 0.0
1.2028628627598026 -0.0643786043571545 0.0
0.6225922809148743 -1.0972501061513220 0.0
0.8749790004977530 -0.8732304994418294 0.0
0.7709474877999710 -1.1738391143391969 0.0
1.1212703601369722 -0.0744308957704667 0.0
0.5602966054524073 -0.7929064323687978 0.0
1.0650643971674862 -0.0502901877736675 0.0
1.0667029784607018 -0.0507465340302289 0.0
1.5605812777855479 -0.0796383819152563 0.0
0.1269499113348031 -0.0405309621211828 0.0
0.1171970837299182 -0.0397977053275469 0.0
0.9809158273374770 -0.8535046365182783 0.0
0.0455131512244093 -0.2514965428123574 0.0
0.4811363468975658 -0.6875678344251263 0.0
0.2265087513111119 -0.8881149260471323 0.0
1.5445781183887193 -0.1838180458790009 0.0
1.2279510257082860 -0.2192425964098606 0.0
1.2099708323190923 -0.2005531526118847 0.0
1.1596629380279724 -0.2656482630373912 0.0
0.4705318230554791 -0.2104386445321820 0.0
0.4974138601782513 -0.2001098402452635 0.0
1.2309446553780072 -0.2854065681392986 0.0
1.0461139867999341 -0.0243670309241453 0.0
1.0442568885790713 -0.0252493387034604 0.0
0.9601015575779214 -0.1058520572500283 0.0
1.0116266629727184 -0.1095417665344898 0.0
0.2969677739498421 -0.0488522063969725 0.0
0.2911551449792323 -0.0471327762762463 0.0
0.8513852088451420 -0.0284464762105256 0.0
1.5536222577661118 -0.1699563361664151 0.0
0.0529965710348576 -0.0100462748296447 0.0
0.0414075996811391 -0.0121304017090178 0.0
1.5356863254131279 -0.0967801907498145 0.0
1.5668822251165579 -0.1224186069820979 0.0
0.1257861836452697 -0.5783364954248451 0.0
1.0962253375563338 0.2303181915806073 0.0
1.0947305775741065 0.2305080572947348 0.0
0.3003353126240930 -0.5092412766075883 0.0
0.2649898773784904 -0.4698395674395588 0.0
0.6329967667076201 -0.9195247929388800 0.0
0.9296844016746568 -0.0593923809070785 0.0
0.9066286657850459 -0.1958766757218214 0.0
0.0426928187959771 -0.2276091518196276 0.0
0.4675201266159661 -1.1437550435733392 0.0
0.2496733180359448 -0.8664134367665104 0.0
0.8328003219014326 -0.1359852907655144 0.0
1.0742605415249074 -0.7569984792402314 0.0
1.5537305054185335 -0.0623605314634778 0.0
0.5488656676654710 -1.0402824855425554 0.0
0.0105772844671919 -0.3792355618103914 0.0
1.0416375386491068 -0.6201146137770130 0.0
0.0494394271497021 -0.3609113290902560 0.0
0.7610616850630593 -0.9392620383805047 0.0
0.4273707196808103 -0.0198836920570382 0.0
0.4402069178259047 -0.0168290205146846 0.0
0.0646361679046264 -0.1264348952084538 0.0
0.0592640885075151 -0.0308211959403800 0.0
0.0470272585070580 -0.0302388908671342 0.0
1.2257332655057096 -0.7532932405981163 0.0
0.9210711500266328 -0.5828377739162011 0.0
0.5678638113637642 -1.0763383905018944 0.0
0.0491319535793074 -0.1446632958981155 0.0
0.8664708505710217 0.1644403966893082 0.0
0.8399519402772716 0.1314076067195602 0.0
0.2063299347152322 -0.1756688138394518 0.0
0.1823331526427659 -0.1712279497403788 0.0
1.6266013703460549 -0.1182683236429822 0.0
1.5558101900425001 -0.3371856416479489 0.0
0.6397810286212606 -1.1056479228549814 0.0
0.7033764861989686 -1.1453341645838171 0.0
0.1535600070689382 -0.4764036767984671 0.0
0.4092956452686873 -1.1224568123135250 0.0
0.0554963283606802 -0.0293623891662692 0.0
0.0633996114091197 -0.0299004286142817 0.0
0.4423232873712133 -1.0558065666725878 0.0
0.6727928887849812 -0.1284617935695068 0.0
0.6471450159025794 -0.1191570991826849 0.0
0.9581411028305916 -0.3939336467007259 0.0
1.3554323035079441 -0.0343935443750622 0.0
0.1534059780822018 -0.6599955375451844 0.0
1.3074005966296611 -0.0572490699663401 0.0
0.9246860608868535 -0.3732223714989953 0.0
0.5176406863778542 -0.0310447702254841 0.0
0.5318863387277634 -0.0343264157210464 0.0
0.8927613364740593 -0.0222705894163299 0.0
1.5037144498307449 -0.3624094886087521 0.0
1.4144349363470672 -0.4043298707321131 0.0
0.5622458327657064 -0.9408179730978664 0.0
1.5996647426992872 -0.0520798064054782 0.0
1.5896216184886154 -0.0442075036411420 0.0
0.2633503727664416 -0.3120837639892231 0.0
0.2316984256155710 -0.3049448538538662 0.0
0.7790192813470048 -0.1429804711216365 0.0
0.8005160015572019 -0.1598330108778224 0.0
1.5519072595956804 -0.0748468778806845 0.0
0.5745895768968672 -0.0657165504123765 0.0
0.6439643146995527 -0.0765169875163992 0.0
0.6620406599295023 -0.0808887335090267 0.0
1.2610838714179347 0.0564076211962880 0.0
1.2108622283473851 0.0463102527560667 0.0
0.6420380507002482 0.0341640618514755 0.0
0.6438705031353432 0.0328798338829181 0.0
1.4539305758968477 -0.0572503481076467 0.0
0.3320885729759672 -0.0546824402149679 0.0
0.3435669292928412 -0.0569727149393137 0.0
0.2861258293319517 -0.1167951589728542 0.0
0.3050941580146764 -0.1159293880996338 0.0
0.7307685022998519 0.0594277221385664 0.0
0.7326853270799759 0.1058944471949126 0.0
0.0114063254418749 -0.4157782974243461 0.0
1.3117961758327559 -0.7355130779154037 0.0
1.3336910263978750 -0.7751333099396399 0.0
0.6582481896269939 -0.6021957140442123 0.0
0.7342026978868625 -0.5318966997900363 0.0
1.3643336140962572 -0.4196030253479521 0.0
0.6062165536024158 0.0248207223571514 0.0
0.6351816159416710 -0.0221787636844859 0.0
0.5389165215469109 -0.1080994585287866 0.0
0.5413186392436509 -0.1060118566035859 0.0
0.6504536947900599 -1.1512744884481718 0.0
0.1127739297293224 -0.0247539626176985 0.0
0.1083822209384604 -0.0257624299825192 0.0
0.6010064142112802 -0.8133493826172017 0.0
0.6721428765891230 -0.0972710335343827 0.0
0.6709377585224916 -0.1050720897922329 0.0
1.3124022553257941 -0.1325027644321562 0.0
1.3164439853572514 -0.1130189245163734 0.0
0.4986524900949168 -0.3077712590524432 0.0
0.4456632909860969 -0.3133264135796929 0.0
-0.0196096004328634 -0.2050028383317655 0.0
1.3765120168883098 -0.1699869773073767 0.0
0.6274465254175989 -0.8902629724820741 0.0
0.1289204790681970 -0.4800823888369620 0.0
0.4322232135991058 -0.6805775051023968 0.0
1.0003023804813884 -1.0239728987676442 0.0
0.8822885890982937 -1.1665262599056121 0.0
1.4943193336778331 -0.0623762203750439 0.0
1.4904295672598111 -0.0936055257630598 0.0
0.6337067101415977 -1.2133676163501472 0.0
1.0262575694454867 -0.2526134830186204 0.0
0.9854785518457290 -0.2092392006010593 0.0
0.5498685534895807 -0.1525278816746549 0.0
0.5382944691355522 -0.1602628069817121 0.0
1.5494452922721145 -0.1080442914128426 0.0
0.9424276543843093 -1.0493017636047453 0.0
0.3999194103311671 -1.0546600849277121 0.0
1.2079884921470569 -0.1671401782424192 0.0
1.5664769924297905 -0.0885147864318368 0.0
1.5758985348142314 -0.0930228611057812 0.0
1.2655427358093490 -0.1636013305590025 0.0
0.1220167408533104 -0.0082979163151024 0.0
0.1291560126246442 -0.0064005245995851 0.0
0.4280507223512688 0.0653886012669406 0.0
1.3520985965100560 -0.1338010986338615 0.0
1.3268800433800996 0.0196341678474326 0.0
0.4244229254171358 -0.8440970589308698 0.0
0.1565464410643269 -0.2514504419856896 0.0
0.1308788964207852 -0.2293466439062029 0.0
0.2070132289518851 -0.0818010024197300 0.0
0.1874343555365394 -0.0825079177301048 0.0
0.3796243359829701 -0.6405873153739237 0.0
-0.0183817180988626 -0.1480357437157052 0.0
0.8523376978692655 -0.7913490272791226 0.0
0.5216546326338608 0.0366239857795737 0.0
0.5049891309697448 0.0192788775707208 0.0
1.4808004890031365 -0.0468854497508815 0.0
1.4809392000676032 -0.0583383342053256 0.0
0.9201102433638525 -1.0787238381678823 0.0
1.5614705544274317 -0.1789216193378269 0.0
0.4305455250218845 -0.0494968896270462 0.0
0.0516546121005008 -0.0498259010621422 0.0
0.0389813639339944 -0.0458912300826897 0.0
0.3631554254705037 -0.7996621517532443 0.0
0.0306947669591230 -0.1432088005837375 0.0
0.6844042673442620 -0.8318693814630731 0.0
1.4268058009092996 -0.1373025013513262 0.0
0.6493386456840027 -0.3812279846463639 0.0
0.6144130557620174 -0.4065504591150376 0.0
0.6045865078737989 -1.0881204994504825 0.0
0.6700786365981046 0.0786192824763605 0.0
0.6671716342306762 0.0812295649541541 0.0
0.7491585906374278 -1.0573786929010782 0.0
0.1135480395527512 -0.6858093749312478 0.0
0.1033820781762738 -0.5402563461958885 0.0
-0.0030631832080541 -0.1398256765427891 0.0
0.8422587548469764 0.0648499171638208 0.0
0.8052503754304592 0.0964146496152099 0.0
0.8329171228520529 -0.0508543870224345 0.0
0.8041630212757594 -0.0675831246556356 0.0
0.3058416087072673 -0.8895544186163535 0.0
0.6839113405646140 -0.1656304817761059 0.0
0.7335010417534779 -0.9143935059844588 0.0
1.3157282415529867 -0.7753890450696268 0.0
0.5519627087213526 0.0818241385319543 0.0
1.4803940760868213 -0.0107585216403872 0.0
1.4840116605432416 -0.0067295277189969 0.0
1.0514745934052208 -1.0725341261646371 0.0
0.7008098292440146 -1.0751239253606160 0.0
1.3416988702137773 -0.1776728114923825 0.0
0.6847397088057582 -1.1387999375743831 0.0
0.0442611585943695 -0.4683933594578742 0.0
1.2037033545935605 -0.0760004637691893 0.0
0.3733385576002561 -1.0187483853679680 0.0
1.6245212077296913 -0.1003399043895919 0.0
0.4110391617535679 -0.0053367912742933 0.0
1.5800528834402650 -0.0856215471708204 0.0
1.5498662480076042 -0.0993572011006936 0.0
0.0114897102275342 0.0028892312188819 0.0
0.0185848554745545 0.0044652588898896 0.0
0.5361114403534624 0.0412713677651670 0.0
0.3618395453862587 -0.0542600694506728 0.0
0.0076037305260968 -0.0048531493944502 0.0
0.0120514040571480 -0.0040160189311696 0.0
0.5546856854788886 -0.0346460213451602 0.0
0.6100760799170207 -0.8086973833370000 0.0
0.5589818629043116 -0.0340909870173091 0.0
0.5529145760885747 -0.0269106535757613 0.0
0.7107206812516235 -0.2877878825286993 0.0
0.7479323457488570 -0.2776450917574396 0.0
0.6051000062207791 -0.6907752340642028 0.0
0.3434455291170355 -0.3911006214940657 0.0
0.3846969763436200 -0.4119630951497639 0.0
0.0340585150316548 0.0048290891198514 0.0
0.0230181371526595 0.0027295023456406 0.0
1.3494434520000822 -0.5076338553525329 0.0
1.2790829984088068 -0.6367809352528123 0.0
0.8855673868794660 -0.5601865905962179 0.0
0.8020890971354379 -0.4755377183899197 0.0
