# vtk DataFile Version 3.0
LucasCarvalhoTCC Results
ASCII

DATASET POLYDATA
FIELD FieldData 1
TIME 1 1 double
0.7000000000000001

POINTS 380 float
0.0 2.0 0.0
2.0 2.0 0.0
3.0 2.0 0.0
3.0 1.0 0.0
5.0 1.0 0.0
5.0 0.0 0.0
3.0 0.0 0.0
2.0 0.0 0.0
2.0 1.0 0.0
0.0 1.0 0.0
0.2643114543905713 2.0 0.0
0.5169795502969444 2.0 0.0
0.7585171880292413 2.0 0.0
0.9894145836600268 2.0 0.0
1.210140497826619 2.0 0.0
1.421143008568911 2.0 0.0
1.622850459538253 2.0 0.0
1.815672303789548 2.0 0.0
2.188552664328277 2.0 0.0
2.359329284173903 2.0 0.0
2.514005696104645 2.0 0.0
2.654099788331341 2.0 0.0
2.780986322989182 2.0 0.0
2.895910470953052 2.0 0.0
3.0 1.9 0.0
3.0 1.8 0.0
3.0 1.7 0.0
3.0 1.6 0.0
3.0 1.5 0.0
3.0 1.4 0.0
3.0 1.3 0.0
3.0 1.2 0.0
3.0 1.1 0.0
3.105031513416626 1.0 0.0
3.221094637894669 1.0 0.0
3.349348047908936 1.0 0.0
3.491072094154001 1.0 0.0
3.647681638607018 1.0 0.0
3.820740106959136 1.0 0.0
4.011975186625977 1.0 0.0
4.223295996958671 1.0 0.0
4.456812096249916 1.0 0.0
4.714854728122151 1.0 0.0
5.0 0.7500000000000003 0.0
5.0 0.5000000000000012 0.0
5.0 0.2500000000000011 0.0
4.735688545609428 0.0 0.0
4.483020449703056 0.0 0.0
4.241482811970759 0.0 0.0
4.010585416339973 0.0 0.0
3.789859502173381 0.0 0.0
3.578856991431089 0.0 0.0
3.377149540461747 0.0 0.0
3.184327696210452 0.0 0.0
2.811447335671723 0.0 0.0
2.640670715826097 0.0 0.0
2.485994303895355 0.0 0.0
2.345900211668659 0.0 0.0
2.219013677010818 0.0 0.0
2.104089529046948 0.0 0.0
2.0 0.1 0.0
2.0 0.2 0.0
2.0 0.3 0.0
2.0 0.4 0.0
2.0 0.5 0.0
2.0 0.6 0.0
2.0 0.7 0.0
2.0 0.8 0.0
2.0 0.9 0.0
1.894968486583374 1.0 0.0
1.77890536210533 1.0 0.0
1.650651952091063 1.0 0.0
1.508927905845999 1.0 0.0
1.352318361392982 1.0 0.0
1.179259893040864 1.0 0.0
0.9880248133740233 1.0 0.0
0.7767040030413299 1.0 0.0
0.5431879037500846 1.0 0.0
0.2851452718778493 1.0 0.0
0.0 1.25 0.0
0.0 1.499999999999999 0.0
0.0 1.749999999999999 0.0
2.426045913985508 1.348290599604586 0.0
2.562221387987337 0.6558377602558874 0.0
1.966703786708101 1.492474555319359 0.0
3.033486484223225 0.4973568340887861 0.0
2.371610747520728 0.97814425147097 0.0
2.648098402859118 1.648016516253387 0.0
2.351901597140882 0.3519834837466129 0.0
2.694321138879857 1.061432730999581 0.0
1.441644339445862 1.496646809257773 0.0
3.554831642064292 0.501744031268764 0.0
2.720742750697982 1.350625068836981 0.0
2.282037541072919 0.639419348257894 0.0
2.813390610951134 0.7911761792959446 0.0
2.310700631729327 1.679155452525512 0.0
2.688751528716965 0.3206838402855661 0.0
2.211165393176843 1.213708510063781 0.0
0.9449004170027906 1.496357611130017 0.0
4.05509958299721 0.5036423888699835 0.0
3.025501657200047 0.7528388163714679 0.0
1.714778657098197 1.300039655550584 0.0
1.958264922640818 1.245975101752485 0.0
2.206386339371814 0.8500000000000001 0.0
3.336706349465057 0.704398544338507 0.0
4.529565928894533 0.555233644424822 0.0
0.4704340711054673 1.444766355575178 0.0
2.186983355180128 1.461437746541105 0.0
2.553715879020142 0.8859594914241276 0.0
2.782212276375736 0.5474565156445963 0.0
2.500206140967324 1.148517546040804 0.0
2.803373162317882 1.783880361314082 0.0
2.196626837682118 0.2161196386859174 0.0
1.735623536927746 1.664129737658362 0.0
3.268802735993943 0.3358439745752063 0.0
2.799454045372581 1.51553500056848 0.0
2.18762015375897 0.4992029885790829 0.0
2.813478812948685 1.18678600527921 0.0
2.400994471757771 0.7612313552289275 0.0
2.405444563947088 0.5311203927463914 0.0
2.583195945356847 1.473216966241769 0.0
3.734210872783077 0.7260959952797862 0.0
1.256500988572085 1.265010492624376 0.0
2.938353069321001 0.2909212553641365 0.0
2.061245308362322 1.709221243241415 0.0
2.182240881432738 1.001025052084926 0.0
2.830214026212788 0.9796244234047695 0.0
2.49023894829247 1.787687811117195 0.0
2.50976105170753 0.2123121888828049 0.0
1.194806886820808 1.686899295332255 0.0
3.805193113179192 0.3131007046677451 0.0
2.655039231860651 1.208917360245127 0.0
1.493530449555064 1.231198576616718 0.0
2.345622594939228 1.152685186835846 0.0
2.41380980106708 1.521513100394759 0.0
2.58979513084283 0.4863225267637531 0.0
2.135472648094309 0.7246460081196311 0.0
2.912574128751924 0.660128736186259 0.0
2.866043013605144 1.353074765380587 0.0
0.6928324624395237 1.69170809873467 0.0
4.307167537560476 0.3082919012653306 0.0
2.071506740582853 1.128535871978767 0.0
0.6831902494895832 1.302725441792086 0.0
4.316809750510417 0.6972745582079137 0.0
2.85534466702333 1.667491236848871 0.0
2.141886244104996 0.336139391754002 0.0
1.447743165823209 1.773242752731258 0.0
3.554386585610856 0.224002072703283 0.0
2.96485662756902 0.8593908564801968 0.0
3.240425509636175 0.8099760775594669 0.0
2.088410584923666 1.339747073830609 0.0
3.277530767974837 0.4939020807639749 0.0
3.534313505233912 0.7935179117986669 0.0
2.546683861402325 1.011736398479819 0.0
2.664793655038503 0.758149595673951 0.0
2.7009922066801 0.9086021996324817 0.0
1.844652141496971 1.153158997353228 0.0
2.575910747861113 1.316876286520138 0.0
3.994328863599566 0.7454319923658932 0.0
1.005671136400434 1.254568007634107 0.0
1.722192091537185 1.482888323667831 0.0
2.644751416415203 1.850904811198953 0.0
2.355248583584797 0.1490951888010467 0.0
2.31560379269905 1.25706851182614 0.0
2.129697972466254 0.5864366202645266 0.0
2.417220568140766 0.6397160301847872 0.0
2.867945749403976 1.069821281672812 0.0
3.182303046124178 0.6739667261124369 0.0
4.702774994215813 0.2953677284017739 0.0
0.2972250057841874 1.704632271598226 0.0
2.90043748182062 0.4316738443013928 0.0
2.486081387366873 0.3514585853722887 0.0
2.513918612633127 1.648541414627711 0.0
2.086778258621772 1.563111332603502 0.0
4.025359850459486 0.2638518716814435 0.0
0.9746401495405139 1.736148128318556 0.0
3.116389458098145 0.2933651166122753 0.0
1.885410353788165 1.707062521230272 0.0
2.327134732627959 1.833634230002939 0.0
2.672865267372041 0.1663657699970617 0.0
1.675899428547673 1.15999616666306 0.0
1.858973331615206 1.373382723203102 0.0
2.860266039499884 1.862282581689995 0.0
2.139733960500116 0.1377174183100045 0.0
1.257473476073173 1.479081588926576 0.0
3.731624273377778 0.5208146070195914 0.0
2.115038607594509 0.9238947313642476 0.0
0.2734661728051435 1.270630989444945 0.0
4.726533827194856 0.7293690105550548 0.0
2.699965708650878 1.465007479364728 0.0
2.298365077320068 0.5341069340550768 0.0
2.510583000486659 0.7602856732279889 0.0
3.370667741214912 0.8392397884376295 0.0
3.067541604254986 0.8806352314757129 0.0
2.90073732483139 1.443475210354718 0.0
2.264071206758208 0.9501943312745662 0.0
2.278663096491763 0.7489636980394857 0.0
1.952511813454414 1.110576661474517 0.0
2.744352083917141 0.687787375233183 0.0
1.566252941493004 1.383661493752942 0.0
2.437660520624072 0.8703573012735125 0.0
2.904826075218911 1.261819176983655 0.0
2.305967018083784 1.391390767447104 0.0
2.105729326736999 0.8145314366030645 0.0
2.428967188976762 1.236966721617647 0.0
3.060475488407204 0.1442825789852263 0.0
1.934979199332455 1.852811714602595 0.0
2.095475260770118 0.4348597444661615 0.0
2.914777085426361 1.759093454264707 0.0
2.084827330449114 0.2414252069642749 0.0
2.207128288422204 1.315477221019454 0.0
2.658751426439581 0.5773232450959589 0.0
2.612380011409894 1.114144853433198 0.0
2.897371573983894 1.569769587751228 0.0
0.5001010519014215 1.226918930408543 0.0
4.499898948098578 0.7730810695914568 0.0
2.753086810589338 1.690362801865437 0.0
2.246793053318422 0.3097947118702842 0.0
3.391580469276819 0.5673489147038103 0.0
3.035026488699165 0.6179797538177514 0.0
2.449819864663089 1.055109427275025 0.0
2.27653308928065 1.054384468582349 0.0
2.794675693196835 1.418106589018447 0.0
2.778866980525137 1.083577784614141 0.0
2.244522876020972 0.1116738824400324 0.0
2.755477123979027 1.888326117559968 0.0
2.323887028942199 0.8604475039748537 0.0
2.204900210979926 1.747483509451062 0.0
2.794853185869193 0.2526222191943996 0.0
2.320767315286541 1.530441598510029 0.0
1.550828143561484 1.606851581022188 0.0
2.796593663741882 1.288013595743853 0.0
3.436143660897262 0.3940652474171653 0.0
2.682379445750112 0.4493639922429763 0.0
3.242313228541417 0.154845696987206 0.0
1.75965289115187 1.844031320058407 0.0
1.3642341383496 1.159631408929946 0.0
1.980047380836635 1.36362624976796 0.0
2.070303834520089 1.451946835577872 0.0
2.55866460451515 1.229901920133861 0.0
4.26844523535139 0.499131154814159 0.0
0.7315547646486098 1.500868845185841 0.0
2.716116351489881 1.570657861970705 0.0
2.283245236086922 0.4299499540566049 0.0
4.50573905238033 0.204273435313806 0.0
0.4942609476196695 1.795726564686194 0.0
3.605070352001925 0.644396355247622 0.0
3.171946621948212 0.9019117497969773 0.0
3.40309695214227 0.1789624633199048 0.0
1.59690304785773 1.821037536680094 0.0
4.776800700354217 0.5074282293075529 0.0
0.2231992996457826 1.492571770692447 0.0
1.293020597407515 1.839015256431498 0.0
3.706979402592485 0.1609847435685022 0.0
1.398281395597716 1.351857389185529 0.0
2.880181082677912 0.1378504756446906 0.0
2.119200639021148 1.861833157788504 0.0
2.408646939494887 0.2452196658480275 0.0
2.591353060505113 1.754780334151973 0.0
1.146570081566377 1.160946826906423 0.0
3.853429918433624 0.8390531730935771 0.0
2.920846657438631 1.149071660619678 0.0
2.101132283911678 1.226382957654413 0.0
2.903672483971366 0.7774662795474147 0.0
2.516386521935266 0.571665255016536 0.0
2.475412447847437 1.444413760085193 0.0
2.903041575637174 0.5510905120278109 0.0
3.666476299189054 0.8553176740217776 0.0
1.558137053653031 1.119389262041809 0.0
3.867595456948903 0.1475874639835382 0.0
1.132404543051097 1.852412536016462 0.0
2.635017655944937 0.9730281566682446 0.0
2.436667490139274 1.901171080200935 0.0
2.563332509860726 0.09882891979906516 0.0
2.091598337090247 1.040423151014485 0.0
0.8316881289508771 1.172977685150089 0.0
4.168311871049123 0.827022314849911 0.0
3.648565743761548 0.3681286963687066 0.0
1.355037313653319 1.636865536133179 0.0
2.58412781071005 1.576586299624529 0.0
2.41587218928995 0.4234137003754711 0.0
2.083716468691946 0.6634832154935376 0.0
1.843942294678346 1.256771801786488 0.0
[...]
POINT_DATA 380

VECTORS Velocity float
0.0000000000000000 0.0000000000000000 0.0
0.0000000000000000 0.0000000000000000 0.0
0.0000000000000000 0.0000000000000000 0.0
0.0000000000000000 0.0000000000000000 0.0
0.0000000000000000 0.0000000000000000 0.0
0.9180217328631003 -0.1298761522550705 0.0
0.0000000000000000 0.0000000000000000 0.0
0.0000000000000000 0.0000000000000000 0.0
0.0000000000000000 0.0000000000000000 0.0
0.0000000000000000 0.0000000000000000 0.0
0.0000000000000000 0.0000000000000000 0.0
0.0000000000000000 0.0000000000000000 0.0
0.0000000000000000 0.0000000000000000 0.0
0.0000000000000000 0.0000000000000000 0.0
0.0000000000000000 0.0000000000000000 0.0
0.0000000000000000 0.0000000000000000 0.0
0.0000000000000000 0.0000000000000000 0.0
0.0000000000000000 0.0000000000000000 0.0
0.0000000000000000 0.0000000000000000 0.0
0.0000000000000000 0.0000000000000000 0.0
0.0000000000000000 0.0000000000000000 0.0
0.0000000000000000 0.0000000000000000 0.0
0.0000000000000000 0.0000000000000000 0.0
0.0000000000000000 0.0000000000000000 0.0
0.0000000000000000 0.0000000000000000 0.0
0.0000000000000000 0.0000000000000000 0.0
0.0000000000000000 0.0000000000000000 0.0
0.0000000000000000 0.0000000000000000 0.0
0.0000000000000000 0.0000000000000000 0.0
0.0000000000000000 0.0000000000000000 0.0
0.0000000000000000 0.0000000000000000 0.0
0.0000000000000000 0.0000000000000000 0.0
0.0000000000000000 0.0000000000000000 0.0
0.0000000000000000 0.0000000000000000 0.0
0.0000000000000000 0.0000000000000000 0.0
0.0000000000000000 0.0000000000000000 0.0
0.0000000000000000 0.0000000000000000 0.0
0.0000000000000000 0.0000000000000000 0.0
0.0000000000000000 0.0000000000000000 0.0
0.0000000000000000 0.0000000000000000 0.0
0.0000000000000000 0.0000000000000000 0.0
0.0000000000000000 0.0000000000000000 0.0
0.0000000000000000 0.0000000000000000 0.0
1.1566901317171061 0.3450423216080183 0.0
0.8011726239672330 0.0381208910928220 0.0
1.1325661398049476 -0.2998973607239744 0.0
0.0000000000000000 0.0000000000000000 0.0
0.0000000000000000 0.0000000000000000 0.0
0.0000000000000000 0.0000000000000000 0.0
0.0000000000000000 0.0000000000000000 0.0
0.0000000000000000 0.0000000000000000 0.0
0.0000000000000000 0.0000000000000000 0.0
0.0000000000000000 0.0000000000000000 0.0
0.0000000000000000 0.0000000000000000 0.0
0.0000000000000000 0.0000000000000000 0.0
0.0000000000000000 0.0000000000000000 0.0
0.0000000000000000 0.0000000000000000 0.0
0.0000000000000000 0.0000000000000000 0.0
0.0000000000000000 0.0000000000000000 0.0
0.0000000000000000 0.0000000000000000 0.0
0.0000000000000000 0.0000000000000000 0.0
0.0000000000000000 0.0000000000000000 0.0
0.0000000000000000 0.0000000000000000 0.0
0.0000000000000000 0.0000000000000000 0.0
0.0000000000000000 0.0000000000000000 0.0
0.0000000000000000 0.0000000000000000 0.0
0.0000000000000000 0.0000000000000000 0.0
0.0000000000000000 0.0000000000000000 0.0
0.0000000000000000 0.0000000000000000 0.0
0.0000000000000000 0.0000000000000000 0.0
0.0000000000000000 0.0000000000000000 0.0
0.0000000000000000 0.0000000000000000 0.0
0.0000000000000000 0.0000000000000000 0.0
0.0000000000000000 0.0000000000000000 0.0
0.0000000000000000 0.0000000000000000 0.0
0.0000000000000000 0.0000000000000000 0.0
0.0000000000000000 0.0000000000000000 0.0
0.0000000000000000 0.0000000000000000 0.0
0.0000000000000000 0.0000000000000000 0.0
1.0000000000000000 0.0000000000000000 0.0
1.0000000000000000 0.0000000000000000 0.0
1.0000000000000000 0.0000000000000000 0.0
0.7297746470684919 -0.5933702633496269 0.0
0.6661162505167952 -0.6093326190786377 0.0
1.2694932775694310 -0.2462407800849998 0.0
1.2140554333040487 -0.2604090099070038 0.0
0.5198410284745705 -0.9433356753157152 0.0
0.4393610372956044 -0.1745323499642335 0.0
0.4099027890348398 -0.1855952379566485 0.0
0.4878243361251248 -0.9922412396771414 0.0
1.4722686960553879 -0.0830892069947759 0.0
1.4829712964044153 -0.0912636035340133 0.0
0.2906753744874238 -0.5729022562183667 0.0
0.2814183963137978 -0.5734467023118859 0.0
1.0163329753400367 -0.9223130933605644 0.0
0.7870730458248797 -0.1664021338710918 0.0
0.7755286414399803 -0.1689801274888662 0.0
1.0175452598571377 -0.8277983195138818 0.0
1.5610709790240160 -0.0084888399194488 0.0
1.5581007577081756 0.0008073113371722 0.0
1.4767414326801287 -0.4244918408698486 0.0
1.4299617017997892 -0.1529685909568039 0.0
1.4670559825469107 -0.3884946331866924 0.0
0.1873817608337008 -1.0089617417042924 0.0
1.4501717559845198 -0.1195471877637026 0.0
1.5596048555237279 0.0140810201575231 0.0
1.5150762247333880 0.0322479939238008 0.0
1.0276179586880207 -0.4087328396281745 0.0
0.5883558289512899 -0.8437530068950000 0.0
0.9567975613611088 -0.3836657029600141 0.0
0.5749374939096835 -0.8380773999278526 0.0
0.2719172977430264 -0.0296288945935977 0.0
0.2403847929758727 -0.0412141347796218 0.0
1.1959643820743346 -0.0607592549229912 0.0
1.1828245565519351 -0.0622797903657408 0.0
0.2038445420898788 -0.3262822153192778 0.0
0.1626532439092512 -0.3126348597512816 0.0
0.0892705395148788 -0.8545344120672118 0.0
0.4469488930674507 -0.7335296361296745 0.0
0.4615957387151988 -0.4351288211105236 0.0
0.5005534838886088 -0.4086061353203358 0.0
1.3648244583894771 -0.0390246987477185 0.0
1.2903061016673791 -0.0960202433160774 0.0
0.9215327416857804 -0.1222409380985226 0.0
0.9442575489069174 -0.1112600299796673 0.0
0.5620499853031546 -1.2456425010697141 0.0
0.5801946434296428 -1.3141088574243065 0.0
0.4795538432634188 -0.0167040663551118 0.0
0.4632557177849257 -0.0228333938865152 0.0
1.2867901377217847 0.0305668743029848 0.0
1.2895196099781583 0.0316586497765148 0.0
0.3985620173933985 -0.7728868482134963 0.0
1.2690420065019670 -0.0298407377497361 0.0
0.7435104121932010 -0.8565444930782798 0.0
0.6951492235596193 -0.3610269134500124 0.0
0.7079676769601913 -0.3903161803177821 0.0
-0.0876037804549765 -0.5608627053282895 0.0
1.2701542294809716 -0.5500198403250282 0.0
0.0557485057383569 -0.4778702119060128 0.0
1.3390423308665538 0.0144310279561936 0.0
1.3403788503806937 0.0226696020718279 0.0
1.3022059940784068 -0.9639634255417858 0.0
1.3749583776666525 -0.0400506831540017 0.0
1.3727362338588198 -0.0512632326592316 0.0
0.2250810440071351 -0.0987814541007577 0.0
0.1955422470438532 -0.1116431882513251 0.0
0.8438205515339671 -0.0072383012180496 0.0
0.8480637913969067 -0.0134686665693033 0.0
1.4289322577766750 -0.7409031102326508 0.0
1.3165997079735994 -0.1431155550869837 0.0
1.2171955724340653 -0.5276174487781311 0.0
1.3892992116476308 -0.0842987639250615 0.0
1.2363187181627580 -0.0783628051931253 0.0
0.5597380943212568 -0.8835771303840633 0.0
0.7726330067728092 -0.7230476366153075 0.0
0.6875731762750290 -0.9952042252689038 0.0
1.3108569132679406 -0.1095491969099888 0.0
0.5076585433238450 -0.6242754071195532 0.0
1.0635285455277390 -0.0458781151927002 0.0
1.0672674869121028 -0.0431489223705421 0.0
1.4196020366632616 -0.0963356774238026 0.0
0.2254296043999546 -0.0396514790225518 0.0
0.2106003178131499 -0.0415902845033849 0.0
0.8494595461262061 -0.7126333886528634 0.0
0.0634386805188711 -0.2856873487143991 0.0
0.4595522207813403 -0.5598807856285363 0.0
0.1225000230669576 -1.0785121157796529 0.0
1.4423726973315520 -0.2305183411542323 0.0
1.2084083056442312 -0.2077415214389769 0.0
1.1985505185360423 -0.1927371649752124 0.0
1.0625714226427523 -0.2653323093642648 0.0
0.5541445213331100 -0.1902845480838384 0.0
0.5774781769374691 -0.1766067209474851 0.0
1.1119212948085799 -0.2649620388857173 0.0
1.0563348618231019 -0.0125639238574348 0.0
1.0523059576700238 -0.0146728142095875 0.0
1.0471230811446199 -0.0882451944245715 0.0
1.0640630303984295 -0.0855938068187675 0.0
0.3879793138532702 -0.0489552572287102 0.0
0.3818915364582841 -0.0498159782945493 0.0
0.9367143312389625 -0.0611241202333259 0.0
1.3777277984638372 -0.2087266071431936 0.0
0.2098507851494061 0.0300587433632646 0.0
0.1802978042576531 0.0201836442475949 0.0
1.4725247782487669 -0.0867067893399541 0.0
1.4906236217921391 -0.1046742711373135 0.0
0.0212274325935441 -0.7892747472531523 0.0
1.1015932527298686 0.2189913846575351 0.0
1.1064095182951050 0.2176208454960406 0.0
0.3270291653837609 -0.4136999914691096 0.0
0.3019163308732780 -0.4060120113500537 0.0
0.5761055918909010 -0.7412348130129177 0.0
0.9863492511576130 -0.0741385419864985 0.0
1.0455862792003621 -0.2461869052295972 0.0
0.0767801407724398 -0.2327262490108311 0.0
0.4260534769220618 -1.0945337837512792 0.0
0.2335369181672015 -0.7743759990506862 0.0
1.0237311617698219 -0.1571468342837035 0.0
0.9156852382934128 -0.6441684410674393 0.0
1.4546179491135172 -0.0865685008399701 0.0
0.5054082121626063 -0.8401949542514834 0.0
-0.0568803952659648 -0.4363015503126710 0.0
0.8737904524794432 -0.5193054418932903 0.0
-0.0360043893991698 -0.4884588804009688 0.0
0.6660261280882921 -0.7538209033856175 0.0
0.5201006751464357 -0.0178181429700988 0.0
0.5195893457970943 -0.0138377461013930 0.0
0.1295831935175972 -0.1376790987944654 0.0
0.2047127451034217 -0.0052332786075985 0.0
0.1739910615002026 -0.0132740865703621 0.0
1.0556207750748923 -0.6613663653448839 0.0
0.7956609518209109 -0.5006605666946023 0.0
0.5068236537301710 -0.8658096424826272 0.0
0.1230078899689157 -0.1350649057590760 0.0
0.8825955029292799 0.1539521832323669 0.0
0.8614898273058291 0.1246894829353391 0.0
0.3387785204817745 -0.1347698150186466 0.0
0.3102322588438334 -0.1472266535873327 0.0
1.4741028041504485 -0.1050715793758022 0.0
1.3493010041163256 -0.3426762459533692 0.0
0.5771565387901152 -0.8928122854949819 0.0
0.6563265551916545 -1.0581395605988291 0.0
0.1909845770049877 -0.4250518838375438 0.0
0.3474356128421505 -1.1001690023152026 0.0
0.1434929211115248 -0.0290312856558848 0.0
0.1598320467206060 -0.0268895770593156 0.0
0.4098104327835416 -0.9194539987223647 0.0
0.7843945934013020 -0.1279801255053092 0.0
0.7705857095516367 -0.1305403951874587 0.0
0.8598088098458415 -0.3376759600462384 0.0
1.3265778273618412 -0.0333422117700017 0.0
0.1502908904250889 -0.6232328028001188 0.0
1.3040031613833343 -0.0355789557271978 0.0
0.8465437549082989 -0.3338682385284036 0.0
0.5979008855560456 -0.0261746699037680 0.0
0.5946909486357358 -0.0281812257358599 0.0
0.9197986826407799 -0.0363035595977335 0.0
1.3270660699054779 -0.3683962886239120 0.0
1.1988589668823932 -0.3684938546684979 0.0
0.5032406622181180 -0.7447395689842149 0.0
1.5448242858194785 -0.0377655390991696 0.0
1.5393147749608287 -0.0349255152722840 0.0
0.3363859298386445 -0.2542667907085025 0.0
0.3057140636307179 -0.2710140499726213 0.0
0.7916630065392924 -0.1289549936454028 0.0
0.8114739226378076 -0.1480979322657061 0.0
1.4621499016627422 -0.0903516088289405 0.0
0.6874752214841997 -0.1006462815896304 0.0
0.7178487607792525 -0.0717844585903709 0.0
0.7191446020848336 -0.0777373003127027 0.0
1.2530266163045078 0.0429191256563565 0.0
1.2067376937962588 0.0368597005192368 0.0
0.6871709998906919 0.0409804350426230 0.0
0.6944663364627383 0.0408207341864199 0.0
1.4052430885567131 -0.0759156209696278 0.0
0.4187628412714906 -0.0577137617400212 0.0
0.4215595674197731 -0.0559325893716206 0.0
0.4220390655894493 -0.1153831874679985 0.0
0.4434952182936527 -0.1095207693248755 0.0
0.7495727541633812 0.0552470377154746 0.0
0.7527886648347548 0.0936025306875181 0.0
-0.1360854800153859 -0.5240297339081798 0.0
1.2680716381859891 -0.7343580837323723 0.0
1.2760180519201163 -0.7972010686943243 0.0
0.5954119427001492 -0.4984638841277020 0.0
0.6458634520825044 -0.4357980186806703 0.0
1.1441331723309318 -0.3880937459210029 0.0
0.6530036029577108 0.0120253674005207 0.0
0.6962562158931571 -0.0460759922250852 0.0
0.5816092909256332 -0.1024067711990215 0.0
0.5804332204820081 -0.1010449964288119 0.0
0.5789694954193687 -0.9465143338278876 0.0
0.1763914246759206 -0.0279167483864055 0.0
0.1702088731963691 -0.0288957274277422 0.0
0.6672014634058135 -1.0767876637670062 0.0
0.6986162172407302 -0.0940660443234057 0.0
0.6969764314434430 -0.0997415570539548 0.0
1.3160955135261163 -0.0970888177316589 0.0
1.3159748723217257 -0.0932672503601922 0.0
0.5131296620333829 -0.2679963745174108 0.0
0.4734811024180164 -0.2790650552148303 0.0
-0.0739937518173276 -0.2689040216830265 0.0
1.3682333591398703 -0.2272110385333101 0.0
0.6845260880064331 -1.1827093749094144 0.0
0.1645248224031013 -0.4533207143725170 0.0
0.4155837599050275 -0.5379524564310244 0.0
1.0284945057943338 -1.1044151780574207 0.0
0.8190952900783876 -1.0986905878473887 0.0
1.4543879863993390 -0.0635404329098404 0.0
1.4577926540817991 -0.0878141037061511 0.0
0.5693538065725335 -1.0931055997122761 0.0
0.9756435686470031 -0.2251093550125308 0.0
0.9505638379843202 -0.2054751956694933 0.0
0.6690293404017300 -0.1378565719023856 0.0
0.6576079146563859 -0.1470516024627766 0.0
1.4666200392577990 -0.1052677119955056 0.0
0.8348560045455649 -0.8879226693788794 0.0
0.3485422924513244 -0.9030206476819310 0.0
1.1685311349609837 -0.1689482013647015 0.0
1.5267458357844168 -0.0649538207084826 0.0
1.5348870247469888 -0.0688252322450035 0.0
1.1930564464293241 -0.1527229093312279 0.0
0.2000250096870825 -0.0016650864035915 0.0
0.2101610372974858 0.0013420614500512 0.0
0.5226325218326545 0.0694200245175786 0.0
1.2707162981765572 -0.1269759509308817 0.0
1.3520734500225100 -0.0386297349888364 0.0
0.3981737977905081 -0.6673810986320482 0.0
0.2597568154921914 -0.2039735476434283 0.0
0.2265042591252200 -0.2101626686457637 0.0
0.3606615695641140 -0.0510320035414485 0.0
0.3335212244224393 -0.0601762572243648 0.0
0.3797887750172964 -0.5257108103283936 0.0
-0.1159845497604181 -0.2108786678831200 0.0
0.7442299468323751 -0.6535652343207625 0.0
0.5494567325359392 0.0328767519913249 0.0
0.5355945214868297 0.0187916668394738 0.0
1.4592860656220925 -0.0345819304799188 0.0
1.4564623481823544 -0.0430880242262004 0.0
0.8285818149975953 -0.9907367411347584 0.0
1.3447657810022937 -0.2100641618129266 0.0
0.5089413364957330 -0.0679156165284185 0.0
0.1745374860687959 -0.0495044981983925 0.0
0.1419283808797153 -0.0529609169840711 0.0
0.3586762280671240 -0.6582171396474847 0.0
0.0643313211096264 -0.1707181393312418 0.0
0.6055875895613901 -0.6601641341470547 0.0
1.3036478793169974 -0.1208401676654324 0.0
0.6158682026481356 -0.3219568118844879 0.0
0.5869853854968450 -0.3480441366892736 0.0
0.5475614026705022 -0.8795084816931004 0.0
0.6970716845367507 0.0795061126544656 0.0
0.6968511093807701 0.0816058419417557 0.0
0.6672738395183290 -0.8708844856973131 0.0
0.0748541637453906 -0.7662562109969144 0.0
0.1051544932342470 -0.5618760947838872 0.0
-0.0155279964496145 -0.1651762482374818 0.0
0.8481209004242423 0.0612398628599861 0.0
0.8156255956294677 0.0880131189393007 0.0
0.8364611411670646 -0.0527043159433751 0.0
0.8089484208442705 -0.0713049119472144 0.0
0.2792288451462159 -0.7589208182523521 0.0
0.8869599248232610 -0.2095306190878861 0.0
0.6570525955979570 -0.7500336171224592 0.0
1.1559237611449458 -0.7024375982704192 0.0
0.6640404301131840 0.0741357901773385 0.0
1.4576995801035499 -0.0144979302618651 0.0
1.4626543691780927 -0.0112510178566445 0.0
1.0832869007655592 -1.1793172956163540 0.0
0.6248799453193741 -0.8698304314995188 0.0
1.4336412063068942 -0.2382661750911102 0.0
0.6160788432544914 -0.9501318742250537 0.0
-0.1663554358042487 -0.7071196910698077 0.0
1.3053725312758824 -0.1591747697557171 0.0
0.3369888991178023 -1.1807163846723028 0.0
1.4362803337957140 -0.1433196725396228 0.0
0.4702465958563115 -0.0119805076556291 0.0
1.5406575519090548 -0.0606277104346811 0.0
1.5176522850582244 -0.0791601729244000 0.0
0.1009356868651839 0.0229063514299038 0.0
0.1224219867929519 0.0276389921570714 0.0
0.5843102776720440 0.0442702849479119 0.0
0.4688216233831848 -0.0852196253712676 0.0
0.0632123979798808 0.0049572985986797 0.0
0.0767048732712153 0.0081803642951184 0.0
0.5835868911173479 -0.0446419557470677 0.0
0.5585929368418078 -0.6530748241649310 0.0
0.5836511906571941 -0.0297455979039234 0.0
0.5806006710063860 -0.0234184969102207 0.0
0.7137426989985475 -0.2496880383576920 0.0
0.7435512503340982 -0.2312004580351443 0.0
0.5462366773101071 -0.5500025955251713 0.0
0.3853041103566130 -0.3344840063265798 0.0
0.4196336882887576 -0.3359121780685868 0.0
0.1920410447616773 0.0344717381558100 0.0
0.1601473548733316 0.0284022780487462 0.0
1.5435096683159610 -0.5930279942977383 0.0
1.0716715025547372 -0.5536255792759531 0.0
0.7598778616508743 -0.4658272611687960 0.0
1.0071795636911149 -0.5973213536039679 0.0
