# vtk DataFile Version 3.0
LucasCarvalhoTCC Results
ASCII

DATASET POLYDATA
FIELD FieldData 1
TIME 1 1 double
4.7

POINTS 380 float
0.0 2.0 0.0
2.0 2.0 0.0
3.0 2.0 0.0
3.0 1.0 0.0
5.0 1.0 0.0
5.0 0.0 0.0
3.0 0.0 0.0
2.0 0.0 0.0
2.0 1.0 0.0
0.0 1.0 0.0
0.2643114543905713 2.0 0.0
0.5169795502969444 2.0 0.0
0.7585171880292413 2.0 0.0
0.9894145836600268 2.0 0.0
1.210140497826619 2.0 0.0
1.421143008568911 2.0 0.0
1.622850459538253 2.0 0.0
1.815672303789548 2.0 0.0
2.188552664328277 2.0 0.0
2.359329284173903 2.0 0.0
2.514005696104645 2.0 0.0
2.654099788331341 2.0 0.0
2.780986322989182 2.0 0.0
2.895910470953052 2.0 0.0
3.0 1.9 0.0
3.0 1.8 0.0
3.0 1.7 0.0
3.0 1.6 0.0
3.0 1.5 0.0
3.0 1.4 0.0
3.0 1.3 0.0
3.0 1.2 0.0
3.0 1.1 0.0
3.105031513416626 1.0 0.0
3.221094637894669 1.0 0.0
3.349348047908936 1.0 0.0
3.491072094154001 1.0 0.0
3.647681638607018 1.0 0.0
3.820740106959136 1.0 0.0
4.011975186625977 1.0 0.0
4.223295996958671 1.0 0.0
4.456812096249916 1.0 0.0
4.714854728122151 1.0 0.0
5.0 0.7500000000000003 0.0
5.0 0.5000000000000012 0.0
5.0 0.2500000000000011 0.0
4.735688545609428 0.0 0.0
4.483020449703056 0.0 0.0
4.241482811970759 0.0 0.0
4.010585416339973 0.0 0.0
3.789859502173381 0.0 0.0
3.578856991431089 0.0 0.0
3.377149540461747 0.0 0.0
3.184327696210452 0.0 0.0
2.811447335671723 0.0 0.0
2.640670715826097 0.0 0.0
2.485994303895355 0.0 0.0
2.345900211668659 0.0 0.0
2.219013677010818 0.0 0.0
2.104089529046948 0.0 0.0
2.0 0.1 0.0
2.0 0.2 0.0
2.0 0.3 0.0
2.0 0.4 0.0
2.0 0.5 0.0
2.0 0.6 0.0
2.0 0.7 0.0
2.0 0.8 0.0
2.0 0.9 0.0
1.894968486583374 1.0 0.0
1.77890536210533 1.0 0.0
1.650651952091063 1.0 0.0
1.508927905845999 1.0 0.0
1.352318361392982 1.0 0.0
1.179259893040864 1.0 0.0
0.9880248133740233 1.0 0.0
0.7767040030413299 1.0 0.0
0.5431879037500846 1.0 0.0
0.2851452718778493 1.0 0.0
0.0 1.25 0.0
0.0 1.499999999999999 0.0
0.0 1.749999999999999 0.0
2.426045913985508 1.348290599604586 0.0
2.562221387987337 0.6558377602558874 0.0
1.966703786708101 1.492474555319359 0.0
3.033486484223225 0.4973568340887861 0.0
2.371610747520728 0.97814425147097 0.0
2.648098402859118 1.648016516253387 0.0
2.351901597140882 0.3519834837466129 0.0
2.694321138879857 1.061432730999581 0.0
1.441644339445862 1.496646809257773 0.0
3.554831642064292 0.501744031268764 0.0
2.720742750697982 1.350625068836981 0.0
2.282037541072919 0.639419348257894 0.0
2.813390610951134 0.7911761792959446 0.0
2.310700631729327 1.679155452525512 0.0
2.688751528716965 0.3206838402855661 0.0
2.211165393176843 1.213708510063781 0.0
0.9449004170027906 1.496357611130017 0.0
4.05509958299721 0.5036423888699835 0.0
3.025501657200047 0.7528388163714679 0.0
1.714778657098197 1.300039655550584 0.0
1.958264922640818 1.245975101752485 0.0
2.206386339371814 0.8500000000000001 0.0
3.336706349465057 0.704398544338507 0.0
4.529565928894533 0.555233644424822 0.0
0.4704340711054673 1.444766355575178 0.0
2.186983355180128 1.461437746541105 0.0
2.553715879020142 0.8859594914241276 0.0
2.782212276375736 0.5474565156445963 0.0
2.500206140967324 1.148517546040804 0.0
2.803373162317882 1.783880361314082 0.0
2.196626837682118 0.2161196386859174 0.0
1.735623536927746 1.664129737658362 0.0
3.268802735993943 0.3358439745752063 0.0
2.799454045372581 1.51553500056848 0.0
2.18762015375897 0.4992029885790829 0.0
2.813478812948685 1.18678600527921 0.0
2.400994471757771 0.7612313552289275 0.0
2.405444563947088 0.5311203927463914 0.0
2.583195945356847 1.473216966241769 0.0
3.734210872783077 0.7260959952797862 0.0
1.256500988572085 1.265010492624376 0.0
2.938353069321001 0.2909212553641365 0.0
2.061245308362322 1.709221243241415 0.0
2.182240881432738 1.001025052084926 0.0
2.830214026212788 0.9796244234047695 0.0
2.49023894829247 1.787687811117195 0.0
2.50976105170753 0.2123121888828049 0.0
1.194806886820808 1.686899295332255 0.0
3.805193113179192 0.3131007046677451 0.0
2.655039231860651 1.208917360245127 0.0
1.493530449555064 1.231198576616718 0.0
2.345622594939228 1.152685186835846 0.0
2.41380980106708 1.521513100394759 0.0
2.58979513084283 0.4863225267637531 0.0
2.135472648094309 0.7246460081196311 0.0
2.912574128751924 0.660128736186259 0.0
2.866043013605144 1.353074765380587 0.0
0.6928324624395237 1.69170809873467 0.0
4.307167537560476 0.3082919012653306 0.0
2.071506740582853 1.128535871978767 0.0
0.6831902494895832 1.302725441792086 0.0
4.316809750510417 0.6972745582079137 0.0
2.85534466702333 1.667491236848871 0.0
2.141886244104996 0.336139391754002 0.0
1.447743165823209 1.773242752731258 0.0
3.554386585610856 0.224002072703283 0.0
2.96485662756902 0.8593908564801968 0.0
3.240425509636175 0.8099760775594669 0.0
2.088410584923666 1.339747073830609 0.0
3.277530767974837 0.4939020807639749 0.0
3.534313505233912 0.7935179117986669 0.0
2.546683861402325 1.011736398479819 0.0
2.664793655038503 0.758149595673951 0.0
2.7009922066801 0.9086021996324817 0.0
1.844652141496971 1.153158997353228 0.0
2.575910747861113 1.316876286520138 0.0
3.994328863599566 0.7454319923658932 0.0
1.005671136400434 1.254568007634107 0.0
1.722192091537185 1.482888323667831 0.0
2.644751416415203 1.850904811198953 0.0
2.355248583584797 0.1490951888010467 0.0
2.31560379269905 1.25706851182614 0.0
2.129697972466254 0.5864366202645266 0.0
2.417220568140766 0.6397160301847872 0.0
2.867945749403976 1.069821281672812 0.0
3.182303046124178 0.6739667261124369 0.0
4.702774994215813 0.2953677284017739 0.0
0.2972250057841874 1.704632271598226 0.0
2.90043748182062 0.4316738443013928 0.0
2.486081387366873 0.3514585853722887 0.0
2.513918612633127 1.648541414627711 0.0
2.086778258621772 1.563111332603502 0.0
4.025359850459486 0.2638518716814435 0.0
0.9746401495405139 1.736148128318556 0.0
3.116389458098145 0.2933651166122753 0.0
1.885410353788165 1.707062521230272 0.0
2.327134732627959 1.833634230002939 0.0
2.672865267372041 0.1663657699970617 0.0
1.675899428547673 1.15999616666306 0.0
1.858973331615206 1.373382723203102 0.0
2.860266039499884 1.862282581689995 0.0
2.139733960500116 0.1377174183100045 0.0
1.257473476073173 1.479081588926576 0.0
3.731624273377778 0.5208146070195914 0.0
2.115038607594509 0.9238947313642476 0.0
0.2734661728051435 1.270630989444945 0.0
4.726533827194856 0.7293690105550548 0.0
2.699965708650878 1.465007479364728 0.0
2.298365077320068 0.5341069340550768 0.0
2.510583000486659 0.7602856732279889 0.0
3.370667741214912 0.8392397884376295 0.0
3.067541604254986 0.8806352314757129 0.0
2.90073732483139 1.443475210354718 0.0
2.264071206758208 0.9501943312745662 0.0
2.278663096491763 0.7489636980394857 0.0
1.952511813454414 1.110576661474517 0.0
2.744352083917141 0.687787375233183 0.0
1.566252941493004 1.383661493752942 0.0
2.437660520624072 0.8703573012735125 0.0
2.904826075218911 1.261819176983655 0.0
2.305967018083784 1.391390767447104 0.0
2.105729326736999 0.8145314366030645 0.0
2.428967188976762 1.236966721617647 0.0
3.060475488407204 0.1442825789852263 0.0
1.934979199332455 1.852811714602595 0.0
2.095475260770118 0.4348597444661615 0.0
2.914777085426361 1.759093454264707 0.0
2.084827330449114 0.2414252069642749 0.0
2.207128288422204 1.315477221019454 0.0
2.658751426439581 0.5773232450959589 0.0
2.612380011409894 1.114144853433198 0.0
2.897371573983894 1.569769587751228 0.0
0.5001010519014215 1.226918930408543 0.0
4.499898948098578 0.7730810695914568 0.0
2.753086810589338 1.690362801865437 0.0
2.246793053318422 0.3097947118702842 0.0
3.391580469276819 0.5673489147038103 0.0
3.035026488699165 0.6179797538177514 0.0
2.449819864663089 1.055109427275025 0.0
2.27653308928065 1.054384468582349 0.0
2.794675693196835 1.418106589018447 0.0
2.778866980525137 1.083577784614141 0.0
2.244522876020972 0.1116738824400324 0.0
2.755477123979027 1.888326117559968 0.0
2.323887028942199 0.8604475039748537 0.0
2.204900210979926 1.747483509451062 0.0
2.794853185869193 0.2526222191943996 0.0
2.320767315286541 1.530441598510029 0.0
1.550828143561484 1.606851581022188 0.0
2.796593663741882 1.288013595743853 0.0
3.436143660897262 0.3940652474171653 0.0
2.682379445750112 0.4493639922429763 0.0
3.242313228541417 0.154845696987206 0.0
1.75965289115187 1.844031320058407 0.0
1.3642341383496 1.159631408929946 0.0
1.980047380836635 1.36362624976796 0.0
2.070303834520089 1.451946835577872 0.0
2.55866460451515 1.229901920133861 0.0
4.26844523535139 0.499131154814159 0.0
0.7315547646486098 1.500868845185841 0.0
2.716116351489881 1.570657861970705 0.0
2.283245236086922 0.4299499540566049 0.0
4.50573905238033 0.204273435313806 0.0
0.4942609476196695 1.795726564686194 0.0
3.605070352001925 0.644396355247622 0.0
3.171946621948212 0.9019117497969773 0.0
3.40309695214227 0.1789624633199048 0.0
1.59690304785773 1.821037536680094 0.0
4.776800700354217 0.5074282293075529 0.0
0.2231992996457826 1.492571770692447 0.0
1.293020597407515 1.839015256431498 0.0
3.706979402592485 0.1609847435685022 0.0
1.398281395597716 1.351857389185529 0.0
2.880181082677912 0.1378504756446906 0.0
2.119200639021148 1.861833157788504 0.0
2.408646939494887 0.2452196658480275 0.0
2.591353060505113 1.754780334151973 0.0
1.146570081566377 1.160946826906423 0.0
3.853429918433624 0.8390531730935771 0.0
2.920846657438631 1.149071660619678 0.0
2.101132283911678 1.226382957654413 0.0
2.903672483971366 0.7774662795474147 0.0
2.516386521935266 0.571665255016536 0.0
2.475412447847437 1.444413760085193 0.0
2.903041575637174 0.5510905120278109 0.0
3.666476299189054 0.8553176740217776 0.0
1.558137053653031 1.119389262041809 0.0
3.867595456948903 0.1475874639835382 0.0
1.132404543051097 1.852412536016462 0.0
2.635017655944937 0.9730281566682446 0.0
2.436667490139274 1.901171080200935 0.0
2.563332509860726 0.09882891979906516 0.0
2.091598337090247 1.040423151014485 0.0
0.8316881289508771 1.172977685150089 0.0
4.168311871049123 0.827022314849911 0.0
3.648565743761548 0.3681286963687066 0.0
1.355037313653319 1.636865536133179 0.0
2.58412781071005 1.576586299624529 0.0
2.41587218928995 0.4234137003754711 0.0
2.083716468691946 0.6634832154935376 0.0
1.843942294678346 1.256771801786488 0.0
[...]
POINT_DATA 380

VECTORS Velocity float
0.0000000000000000 0.0000000000000000 0.0
0.0000000000000000 0.0000000000000000 0.0
0.0000000000000000 0.0000000000000000 0.0
0.0000000000000000 0.0000000000000000 0.0
0.0000000000000000 0.0000000000000000 0.0
0.9186853227054835 -0.1330569950929777 0.0
0.0000000000000000 0.0000000000000000 0.0
0.0000000000000000 0.0000000000000000 0.0
0.0000000000000000 0.0000000000000000 0.0
0.0000000000000000 0.0000000000000000 0.0
0.0000000000000000 0.0000000000000000 0.0
0.0000000000000000 0.0000000000000000 0.0
0.0000000000000000 0.0000000000000000 0.0
0.0000000000000000 0.0000000000000000 0.0
0.0000000000000000 0.0000000000000000 0.0
0.0000000000000000 0.0000000000000000 0.0
0.0000000000000000 0.0000000000000000 0.0
0.0000000000000000 0.0000000000000000 0.0
0.0000000000000000 0.0000000000000000 0.0
0.0000000000000000 0.0000000000000000 0.0
0.0000000000000000 0.0000000000000000 0.0
0.0000000000000000 0.0000000000000000 0.0
0.0000000000000000 0.0000000000000000 0.0
0.0000000000000000 0.0000000000000000 0.0
0.0000000000000000 0.0000000000000000 0.0
0.0000000000000000 0.0000000000000000 0.0
0.0000000000000000 0.0000000000000000 0.0
0.0000000000000000 0.0000000000000000 0.0
0.0000000000000000 0.0000000000000000 0.0
0.0000000000000000 0.0000000000000000 0.0
0.0000000000000000 0.0000000000000000 0.0
0.0000000000000000 0.0000000000000000 0.0
0.0000000000000000 0.0000000000000000 0.0
0.0000000000000000 0.0000000000000000 0.0
0.0000000000000000 0.0000000000000000 0.0
0.0000000000000000 0.0000000000000000 0.0
0.0000000000000000 0.0000000000000000 0.0
0.0000000000000000 0.0000000000000000 0.0
0.0000000000000000 0.0000000000000000 0.0
0.0000000000000000 0.0000000000000000 0.0
0.0000000000000000 0.0000000000000000 0.0
0.0000000000000000 0.0000000000000000 0.0
0.0000000000000000 0.0000000000000000 0.0
1.1551811230931166 0.3642162831384557 0.0
0.7957331617181751 0.0634285125133905 0.0
1.1395823055686214 -0.2965021028877946 0.0
0.0000000000000000 0.0000000000000000 0.0
0.0000000000000000 0.0000000000000000 0.0
0.0000000000000000 0.0000000000000000 0.0
0.0000000000000000 0.0000000000000000 0.0
0.0000000000000000 0.0000000000000000 0.0
0.0000000000000000 0.0000000000000000 0.0
0.0000000000000000 0.0000000000000000 0.0
0.0000000000000000 0.0000000000000000 0.0
0.0000000000000000 0.0000000000000000 0.0
0.0000000000000000 0.0000000000000000 0.0
0.0000000000000000 0.0000000000000000 0.0
0.0000000000000000 0.0000000000000000 0.0
0.0000000000000000 0.0000000000000000 0.0
0.0000000000000000 0.0000000000000000 0.0
0.0000000000000000 0.0000000000000000 0.0
0.0000000000000000 0.0000000000000000 0.0
0.0000000000000000 0.0000000000000000 0.0
0.0000000000000000 0.0000000000000000 0.0
0.0000000000000000 0.0000000000000000 0.0
0.0000000000000000 0.0000000000000000 0.0
0.0000000000000000 0.0000000000000000 0.0
0.0000000000000000 0.0000000000000000 0.0
0.0000000000000000 0.0000000000000000 0.0
0.0000000000000000 0.0000000000000000 0.0
0.0000000000000000 0.0000000000000000 0.0
0.0000000000000000 0.0000000000000000 0.0
0.0000000000000000 0.0000000000000000 0.0
0.0000000000000000 0.0000000000000000 0.0
0.0000000000000000 0.0000000000000000 0.0
0.0000000000000000 0.0000000000000000 0.0
0.0000000000000000 0.0000000000000000 0.0
0.0000000000000000 0.0000000000000000 0.0
0.0000000000000000 0.0000000000000000 0.0
1.0000000000000000 0.0000000000000000 0.0
1.0000000000000000 0.0000000000000000 0.0
1.0000000000000000 0.0000000000000000 0.0
0.9241981803488702 -0.8334115358831836 0.0
0.8082444502772148 -0.8575103246685095 0.0
1.5174889331984078 -0.2560716053509799 0.0
1.4599678367132392 -0.2518008555706376 0.0
0.5898029037389690 -1.1993681617540790 0.0
0.2649126852365940 -0.2065364466746324 0.0
0.2251285276504853 -0.1954061990331621 0.0
0.5748911015776916 -1.2203143662650804 0.0
1.5744814723957810 -0.0763613949035888 0.0
1.6112675101802301 -0.1198005114304383 0.0
0.2739093030560711 -0.6903460684514287 0.0
0.2523789126125620 -0.6053274402088261 0.0
1.1635637639657357 -0.9909454347120142 0.0
0.7038206236789173 -0.2048583688278571 0.0
0.6615662433905328 -0.1915726766637835 0.0
1.1593998199543865 -0.9007292938149589 0.0
1.6001486600663621 -0.0195597323115438 0.0
1.5975311615959860 -0.0091248257403505 0.0
1.4943090814708169 -0.3493589970901068 0.0
1.4998736510002240 -0.0583550151103535 0.0
1.4353889785454350 -0.3098354410550388 0.0
0.2573575492829748 -0.8220643437093010 0.0
1.5174840211478056 -0.0672362217229942 0.0
1.5836283035275980 0.0097316415896631 0.0
1.5334864916168343 0.0359696096205624 0.0
1.2894216471920963 -0.4994792988318067 0.0
0.6972287492366634 -1.2011933554619689 0.0
1.1871268958596570 -0.4563433713691984 0.0
0.6871158597451179 -1.2113145480526675 0.0
0.0524063990168140 -0.0658223114668609 0.0
0.0431051071902334 -0.0565083645889990 0.0
1.1911115297699506 -0.0813791888034212 0.0
1.1139591849108770 -0.0924024642007573 0.0
0.1074099424961321 -0.3194304097060666 0.0
0.0769263245409877 -0.2569035067418195 0.0
0.1735693123339486 -0.7409754291487513 0.0
0.4948556268135476 -0.9734205129272192 0.0
0.4543655515941642 -0.5589441392980498 0.0
0.5262607296969378 -0.5663893322094957 0.0
1.3928418995479666 -0.0124314550066733 0.0
1.3075518585840968 -0.0808370378977809 0.0
0.8076567045593365 -0.1288950969566796 0.0
0.8777057799239094 -0.1312998703082507 0.0
0.5549533636047825 -0.9797993750781538 0.0
0.6239759106740510 -1.0901699906091680 0.0
0.2963434278664119 -0.0350631367305101 0.0
0.2734008911992258 -0.0394851261192317 0.0
1.2772855951740678 0.0117570240007568 0.0
1.2779033193629836 0.0076737615531190 0.0
0.4666301904544985 -1.0556070965045807 0.0
1.2568421252600195 0.0017067655068625 0.0
0.8828182095730754 -1.0982267713563081 0.0
0.7855698870555888 -0.4838467181865737 0.0
0.7955034010152312 -0.5248640285536168 0.0
0.0295118736134063 -0.3532644108520782 0.0
1.5091848790689175 -0.5446198139393161 0.0
0.0640937135977304 -0.3831149933952746 0.0
1.3446618874026348 0.0064498459243498 0.0
1.3450860479693398 0.0148977995125649 0.0
1.0943620149809861 -0.7361471255549971 0.0
1.3761504993247635 -0.0384099900075149 0.0
1.3735010147800821 -0.0565358122987516 0.0
0.0441346226277227 -0.1120481833721387 0.0
0.0383460236634590 -0.0943320962170432 0.0
0.7915756543110368 -0.0086907371305723 0.0
0.7745163409614619 -0.0273341034212650 0.0
1.2383932630469712 -0.5621245849411135 0.0
1.2446392617821294 -0.1002148469099826 0.0
1.4508776558613241 -0.5548552620056089 0.0
1.5356463958494995 -0.0927876936813789 0.0
1.2090945371686042 -0.0647403077203858 0.0
0.6644238152174414 -1.2665130788086569 0.0
0.9479095224805646 -0.9743307216420327 0.0
0.8082910412117136 -1.2414033970733909 0.0
1.0693143921008577 -0.0566704474732925 0.0
0.5966728058866835 -0.9071303402890342 0.0
1.0658811483679289 -0.0517291212024526 0.0
1.0677599313516852 -0.0526527422397027 0.0
1.5797765261022556 -0.0660979885795125 0.0
0.0910301961263357 -0.0382003744142177 0.0
0.0801418630510969 -0.0351486929072527 0.0
1.0506952581692122 -0.9158106541053808 0.0
0.0413498594612640 -0.1891209684505402 0.0
0.4856925632544031 -0.7482704342513791 0.0
0.2461495361413842 -0.7696776518008814 0.0
1.5667479508103317 -0.1607147064365264 0.0
1.2290428470556083 -0.2189098031123902 0.0
1.2102367325390033 -0.2003311045266261 0.0
1.1898883631589001 -0.2684967965315345 0.0
0.4045466869279020 -0.2262582620068996 0.0
0.4432023964532605 -0.2225567510502880 0.0
1.2730658114206868 -0.2946344518979175 0.0
1.0451210307828538 -0.0266369565753548 0.0
1.0430031236986543 -0.0274699474515682 0.0
0.9375100347164504 -0.1125452213413852 0.0
1.0135033441500825 -0.1171800553594506 0.0
0.2712247497971067 -0.0532364459033931 0.0
0.2588546221587903 -0.0495649654985107 0.0
0.8348646886776679 -0.0184001759901020 0.0
1.5831533634408093 -0.1491056980813428 0.0
0.0098111842326386 -0.0179399207339830 0.0
0.0079520270147058 -0.0148452949006255 0.0
1.5372914640116657 -0.0975860626583213 0.0
1.5698897360626978 -0.1289664332726843 0.0
0.1399902730148568 -0.4848611414784211 0.0
1.0959962867190980 0.2306211162413499 0.0
1.0936439460706282 0.2310935737956122 0.0
0.2740022825790795 -0.5090364675390069 0.0
0.2294312402140281 -0.4364773208284177 0.0
0.6770287305228500 -1.0577099057544472 0.0
0.9319425977960264 -0.0545766912214142 0.0
0.8771907316732593 -0.1753551450518781 0.0
0.0355811247891419 -0.1795760510059595 0.0
0.4704775312943639 -1.0973062530014006 0.0
0.2661108187971412 -0.8266992588846356 0.0
0.7768283005409696 -0.1226602528824977 0.0
1.1600994273040821 -0.8098372087056008 0.0
1.5613527396094942 -0.0485813679463234 0.0
0.5787309093637921 -1.1575553924891868 0.0
0.0310422078359561 -0.3109679594869287 0.0
1.1267310468203779 -0.6815485645982028 0.0
0.0698277750214670 -0.2879562198898939 0.0
0.8208131098429740 -1.0689148682242049 0.0
0.4054216936475147 -0.0213311969315745 0.0
0.4317005157750562 -0.0191683475653350 0.0
0.0359113787591929 -0.0902750051416736 0.0
0.0147076425902307 -0.0309311846764700 0.0
0.0121460400762958 -0.0254122440613202 0.0
1.2934148871857167 -0.7657238880501818 0.0
0.9841033075007950 -0.6620332345954788 0.0
0.5967705759623328 -1.2053549613515822 0.0
0.0243747500740968 -0.1144150669846357 0.0
0.8659873258165209 0.1645797955485048 0.0
0.8386630191627330 0.1312728887307987 0.0
0.1367784833419516 -0.1667553442600898 0.0
0.1156594634852262 -0.1466480821092079 0.0
1.6436489385870925 -0.1222258254037148 0.0
1.6080099321455459 -0.3164850563330261 0.0
0.6762237763402468 -1.2559106598333869 0.0
0.7095631804285047 -1.1326964153392860 0.0
0.1377082854397424 -0.4194494024376955 0.0
0.4219503329892255 -1.0618938014236516 0.0
0.0284801427604306 -0.0239219647812461 0.0
0.0335139568844858 -0.0272931717192829 0.0
0.4575178757628229 -1.0577557889484939 0.0
0.6496670218195382 -0.1389545640716650 0.0
0.6060687064813740 -0.1236270085183026 0.0
1.0013038320642837 -0.4447846824279287 0.0
1.3585686935942527 -0.0295274689786120 0.0
0.1585073918747726 -0.5909291608938777 0.0
1.3017801032912428 -0.0658928881812966 0.0
0.9456462997726286 -0.4193467736270832 0.0
0.5005567246571627 -0.0333518445897194 0.0
0.5285731246035492 -0.0360272771717680 0.0
0.8946277458121530 -0.0193077910188388 0.0
1.5431072282218361 -0.3411015740297680 0.0
1.4768782398699591 -0.4067258359366086 0.0
0.5955890534227413 -1.0832318649120873 0.0
1.6000751100454322 -0.0535681199652670 0.0
1.5899142645571789 -0.0450963595504785 0.0
0.2043332696195639 -0.3008795558958726 0.0
0.1724168612691827 -0.2689545556558580 0.0
0.7799860722402177 -0.1433705992992967 0.0
0.8008338879461817 -0.1598513793571199 0.0
1.5611263917472054 -0.0777876355131665 0.0
0.5604230811649938 -0.0553421830590379 0.0
0.6303916327789276 -0.0793709134000510 0.0
0.6584801444310557 -0.0802823351103228 0.0
1.2611519622327818 0.0575460947864258 0.0
1.2108940652343980 0.0466712534559967 0.0
0.6382203700946281 0.0333076981034702 0.0
0.6383526509079672 0.0300910832371124 0.0
1.4570706967578464 -0.0513603494837131 0.0
0.3098651284301586 -0.0559118072552740 0.0
0.3314663079841015 -0.0605171459707290 0.0
0.2177180018184479 -0.1148822908011439 0.0
0.2418712927536928 -0.1192678354375922 0.0
0.7328619183818095 0.0586585464364477 0.0
0.7342077514579972 0.1056980919429901 0.0
0.0451566265683183 -0.3440582885650685 0.0
1.3143260758980930 -0.6977942669640664 0.0
1.3486015792733417 -0.7249450360928184 0.0
0.6754484953924416 -0.6835302891530484 0.0
0.7804028059268688 -0.6215310522864835 0.0
1.4377887484117211 -0.4213079376160944 0.0
0.6079428426360105 0.0248419462319811 0.0
0.6291340023170454 -0.0156106019767796 0.0
0.5363688022680433 -0.1093537624794093 0.0
0.5388117155214875 -0.1068689045525154 0.0
0.6914094620189550 -1.2762131511115102 0.0
0.0921722652699998 -0.0256576008628401 0.0
0.0856509619576439 -0.0264080007960867 0.0
0.5647703416440537 -0.7053802259941692 0.0
0.6719842084266621 -0.0979158059746895 0.0
0.6704996411688544 -0.1057421210573112 0.0
1.3069905382467746 -0.1412792926227429 0.0
1.3136381947613096 -0.1129625917056056 0.0
0.4530526462050106 -0.3347527265083447 0.0
0.3866856582802860 -0.3284965717241655 0.0
0.0039367576437763 -0.1498780199689644 0.0
1.3663630340767468 -0.1396691224178603 0.0
0.6043263003534498 -0.7728228752105968 0.0
0.1128848577308287 -0.4086746781867755 0.0
0.4357518888255562 -0.7462710106927900 0.0
0.9746958767631027 -0.9468695349260839 0.0
0.9045802518899246 -1.1417920908521182 0.0
1.4973249891827105 -0.0659574577772024 0.0
1.4928911318673026 -0.0969539032023090 0.0
0.6541452531979923 -1.2239851882246824 0.0
1.0506079590301449 -0.2795912788289249 0.0
0.9953532672026826 -0.2278290609296343 0.0
0.5025392381116736 -0.1721507597179349 0.0
0.4782109827347111 -0.1767536428753695 0.0
1.5615274682476239 -0.1088981968075475 0.0
1.0022588364221272 -1.1047670770215634 0.0
0.4195209283497223 -1.0701407267554077 0.0
1.2135111630480970 -0.1677798320521366 0.0
1.5661250300120602 -0.0923940049825418 0.0
1.5756444484026866 -0.0977769291756287 0.0
1.2909468818916017 -0.1699080021493606 0.0
0.0914089344281325 -0.0118480185216796 0.0
0.1008536430975297 -0.0102577293478000 0.0
0.4211396193486819 0.0686674893188868 0.0
1.3633101667182084 -0.1370802620795101 0.0
1.3203663807577513 0.0375750356681428 0.0
0.4433619257761199 -0.9201106023660807 0.0
0.1009149168325023 -0.2222365641029085 0.0
0.0800614155224891 -0.1840708899001639 0.0
0.1409339820389149 -0.0841085212951870 0.0
0.1222079441248080 -0.0763270068310870 0.0
0.3689558544898499 -0.6513457563024843 0.0
0.0102494914223447 -0.1114381898523534 0.0
0.9272647847623934 -0.8947931516074452 0.0
0.5211286909289288 0.0366078554047694 0.0
0.5040619270216118 0.0190481358253438 0.0
1.4811760466421422 -0.0483474561775331 0.0
1.4810889799319376 -0.0599110979234317 0.0
0.9532859275970319 -1.0755513166114492 0.0
1.6059692244915931 -0.1647541045555913 0.0
0.4303064288286939 -0.0486652646153346 0.0
0.0135692770742170 -0.0383387989412151 0.0
0.0092656302332916 -0.0317927241249568 0.0
0.3772532973271245 -0.8130991911392035 0.0
0.0172600499559439 -0.0997508104635185 0.0
0.7366966912678264 -0.9708821885084014 0.0
1.4541318446845874 -0.1376726204571751 0.0
0.6415657494091219 -0.4371917773629099 0.0
0.5915188939333168 -0.4501343941466620 0.0
0.6429182875423468 -1.2400593137560596 0.0
0.6699087491758886 0.0780704006333889 0.0
0.6672374706111658 0.0808081965961474 0.0
0.8036578561418104 -1.1875721392167469 0.0
0.1298926975595670 -0.5828277842866660 0.0
0.1090731519406582 -0.4526900689725823 0.0
0.0096871683324251 -0.1081541754579631 0.0
0.8421336874526369 0.0649315954152186 0.0
0.8047621279736857 0.0969163043216908 0.0
0.8330162310413837 -0.0507538636883201 0.0
0.8045854589423398 -0.0670094239873274 0.0
0.3178273442525542 -0.8792105798081399 0.0
0.6365808076592843 -0.1453891338856612 0.0
0.7904253970019109 -1.0533883436040647 0.0
1.3756204869894166 -0.7752580217968715 0.0
0.5302960864239146 0.0850753272616026 0.0
1.4803888202416438 -0.0121923987551649 0.0
1.4842683729041581 -0.0081381345509394 0.0
1.0384533497208517 -0.9854088156236075 0.0
0.7481304859003737 -1.2074392783730143 0.0
1.3244994537995234 -0.1515174623271780 0.0
0.7197230003435190 -1.2212171903704907 0.0
0.0874794704272530 -0.3842072329474043 0.0
1.1763811085188094 -0.0516352164341543 0.0
0.3742797168310119 -0.9066184143014855 0.0
1.6563737281975184 -0.0897406929115259 0.0
0.4121380467838689 -0.0053541347611722 0.0
1.5813349305004003 -0.0860701611406972 0.0
1.5503883814198269 -0.0992779871488544 0.0
-0.0062084699133719 -0.0013065395267517 0.0
-0.0070201083186981 -0.0017048512579332 0.0
0.5347001382381779 0.0429656561528818 0.0
0.3405072602048877 -0.0423499545465763 0.0
-0.0032441024769887 -0.0056480472612264 0.0
-0.0032953081881020 -0.0067053418324102 0.0
0.5568623196934919 -0.0346323510187345 0.0
0.6432137518305137 -0.9166056852694847 0.0
0.5591487653553155 -0.0341142010681078 0.0
0.5533480609323665 -0.0270441489761119 0.0
0.6813001287135192 -0.3265506319604825 0.0
0.7368221004936353 -0.3241890486350550 0.0
0.6440369761453314 -0.8021361417939810 0.0
0.2913747402570043 -0.3876679246640934 0.0
0.3403797111401614 -0.4351583996446384 0.0
-0.0068670008751937 -0.0035111872283981 0.0
-0.0061359877831086 -0.0028050056679946 0.0
1.2750233538506146 -0.4560983285208912 0.0
1.3629566157620494 -0.6534126646484643 0.0
0.9519038817579627 -0.6423790579731120 0.0
0.7380309115895374 -0.4216666238248455 0.0
