# vtk DataFile Version 3.0
LucasCarvalhoTCC Results
ASCII

DATASET POLYDATA
FIELD FieldData 1
TIME 1 1 double
1.4000000000000001

POINTS 380 float
0.0 2.0 0.0
2.0 2.0 0.0
3.0 2.0 0.0
3.0 1.0 0.0
5.0 1.0 0.0
5.0 0.0 0.0
3.0 0.0 0.0
2.0 0.0 0.0
2.0 1.0 0.0
0.0 1.0 0.0
0.2643114543905713 2.0 0.0
0.5169795502969444 2.0 0.0
0.7585171880292413 2.0 0.0
0.9894145836600268 2.0 0.0
1.210140497826619 2.0 0.0
1.421143008568911 2.0 0.0
1.622850459538253 2.0 0.0
1.815672303789548 2.0 0.0
2.188552664328277 2.0 0.0
2.359329284173903 2.0 0.0
2.514005696104645 2.0 0.0
2.654099788331341 2.0 0.0
2.780986322989182 2.0 0.0
2.895910470953052 2.0 0.0
3.0 1.9 0.0
3.0 1.8 0.0
3.0 1.7 0.0
3.0 1.6 0.0
3.0 1.5 0.0
3.0 1.4 0.0
3.0 1.3 0.0
3.0 1.2 0.0
3.0 1.1 0.0
3.105031513416626 1.0 0.0
3.221094637894669 1.0 0.0
3.349348047908936 1.0 0.0
3.491072094154001 1.0 0.0
3.647681638607018 1.0 0.0
3.820740106959136 1.0 0.0
4.011975186625977 1.0 0.0
4.223295996958671 1.0 0.0
4.456812096249916 1.0 0.0
4.714854728122151 1.0 0.0
5.0 0.7500000000000003 0.0
5.0 0.5000000000000012 0.0
5.0 0.2500000000000011 0.0
4.735688545609428 0.0 0.0
4.483020449703056 0.0 0.0
4.241482811970759 0.0 0.0
4.010585416339973 0.0 0.0
3.789859502173381 0.0 0.0
3.578856991431089 0.0 0.0
3.377149540461747 0.0 0.0
3.184327696210452 0.0 0.0
2.811447335671723 0.0 0.0
2.640670715826097 0.0 0.0
2.485994303895355 0.0 0.0
2.345900211668659 0.0 0.0
2.219013677010818 0.0 0.0
2.104089529046948 0.0 0.0
2.0 0.1 0.0
2.0 0.2 0.0
2.0 0.3 0.0
2.0 0.4 0.0
2.0 0.5 0.0
2.0 0.6 0.0
2.0 0.7 0.0
2.0 0.8 0.0
2.0 0.9 0.0
1.894968486583374 1.0 0.0
1.77890536210533 1.0 0.0
1.650651952091063 1.0 0.0
1.508927905845999 1.0 0.0
1.352318361392982 1.0 0.0
1.179259893040864 1.0 0.0
0.9880248133740233 1.0 0.0
0.7767040030413299 1.0 0.0
0.5431879037500846 1.0 0.0
0.2851452718778493 1.0 0.0
0.0 1.25 0.0
0.0 1.499999999999999 0.0
0.0 1.749999999999999 0.0
2.426045913985508 1.348290599604586 0.0
2.562221387987337 0.6558377602558874 0.0
1.966703786708101 1.492474555319359 0.0
3.033486484223225 0.4973568340887861 0.0
2.371610747520728 0.97814425147097 0.0
2.648098402859118 1.648016516253387 0.0
2.351901597140882 0.3519834837466129 0.0
2.694321138879857 1.061432730999581 0.0
1.441644339445862 1.496646809257773 0.0
3.554831642064292 0.501744031268764 0.0
2.720742750697982 1.350625068836981 0.0
2.282037541072919 0.639419348257894 0.0
2.813390610951134 0.7911761792959446 0.0
2.310700631729327 1.679155452525512 0.0
2.688751528716965 0.3206838402855661 0.0
2.211165393176843 1.213708510063781 0.0
0.9449004170027906 1.496357611130017 0.0
4.05509958299721 0.5036423888699835 0.0
3.025501657200047 0.7528388163714679 0.0
1.714778657098197 1.300039655550584 0.0
1.958264922640818 1.245975101752485 0.0
2.206386339371814 0.8500000000000001 0.0
3.336706349465057 0.704398544338507 0.0
4.529565928894533 0.555233644424822 0.0
0.4704340711054673 1.444766355575178 0.0
2.186983355180128 1.461437746541105 0.0
2.553715879020142 0.8859594914241276 0.0
2.782212276375736 0.5474565156445963 0.0
2.500206140967324 1.148517546040804 0.0
2.803373162317882 1.783880361314082 0.0
2.196626837682118 0.2161196386859174 0.0
1.735623536927746 1.664129737658362 0.0
3.268802735993943 0.3358439745752063 0.0
2.799454045372581 1.51553500056848 0.0
2.18762015375897 0.4992029885790829 0.0
2.813478812948685 1.18678600527921 0.0
2.400994471757771 0.7612313552289275 0.0
2.405444563947088 0.5311203927463914 0.0
2.583195945356847 1.473216966241769 0.0
3.734210872783077 0.7260959952797862 0.0
1.256500988572085 1.265010492624376 0.0
2.938353069321001 0.2909212553641365 0.0
2.061245308362322 1.709221243241415 0.0
2.182240881432738 1.001025052084926 0.0
2.830214026212788 0.9796244234047695 0.0
2.49023894829247 1.787687811117195 0.0
2.50976105170753 0.2123121888828049 0.0
1.194806886820808 1.686899295332255 0.0
3.805193113179192 0.3131007046677451 0.0
2.655039231860651 1.208917360245127 0.0
1.493530449555064 1.231198576616718 0.0
2.345622594939228 1.152685186835846 0.0
2.41380980106708 1.521513100394759 0.0
2.58979513084283 0.4863225267637531 0.0
2.135472648094309 0.7246460081196311 0.0
2.912574128751924 0.660128736186259 0.0
2.866043013605144 1.353074765380587 0.0
0.6928324624395237 1.69170809873467 0.0
4.307167537560476 0.3082919012653306 0.0
2.071506740582853 1.128535871978767 0.0
0.6831902494895832 1.302725441792086 0.0
4.316809750510417 0.6972745582079137 0.0
2.85534466702333 1.667491236848871 0.0
2.141886244104996 0.336139391754002 0.0
1.447743165823209 1.773242752731258 0.0
3.554386585610856 0.224002072703283 0.0
2.96485662756902 0.8593908564801968 0.0
3.240425509636175 0.8099760775594669 0.0
2.088410584923666 1.339747073830609 0.0
3.277530767974837 0.4939020807639749 0.0
3.534313505233912 0.7935179117986669 0.0
2.546683861402325 1.011736398479819 0.0
2.664793655038503 0.758149595673951 0.0
2.7009922066801 0.9086021996324817 0.0
1.844652141496971 1.153158997353228 0.0
2.575910747861113 1.316876286520138 0.0
3.994328863599566 0.7454319923658932 0.0
1.005671136400434 1.254568007634107 0.0
1.722192091537185 1.482888323667831 0.0
2.644751416415203 1.850904811198953 0.0
2.355248583584797 0.1490951888010467 0.0
2.31560379269905 1.25706851182614 0.0
2.129697972466254 0.5864366202645266 0.0
2.417220568140766 0.6397160301847872 0.0
2.867945749403976 1.069821281672812 0.0
3.182303046124178 0.6739667261124369 0.0
4.702774994215813 0.2953677284017739 0.0
0.2972250057841874 1.704632271598226 0.0
2.90043748182062 0.4316738443013928 0.0
2.486081387366873 0.3514585853722887 0.0
2.513918612633127 1.648541414627711 0.0
2.086778258621772 1.563111332603502 0.0
4.025359850459486 0.2638518716814435 0.0
0.9746401495405139 1.736148128318556 0.0
3.116389458098145 0.2933651166122753 0.0
1.885410353788165 1.707062521230272 0.0
2.327134732627959 1.833634230002939 0.0
2.672865267372041 0.1663657699970617 0.0
1.675899428547673 1.15999616666306 0.0
1.858973331615206 1.373382723203102 0.0
2.860266039499884 1.862282581689995 0.0
2.139733960500116 0.1377174183100045 0.0
1.257473476073173 1.479081588926576 0.0
3.731624273377778 0.5208146070195914 0.0
2.115038607594509 0.9238947313642476 0.0
0.2734661728051435 1.270630989444945 0.0
4.726533827194856 0.7293690105550548 0.0
2.699965708650878 1.465007479364728 0.0
2.298365077320068 0.5341069340550768 0.0
2.510583000486659 0.7602856732279889 0.0
3.370667741214912 0.8392397884376295 0.0
3.067541604254986 0.8806352314757129 0.0
2.90073732483139 1.443475210354718 0.0
2.264071206758208 0.9501943312745662 0.0
2.278663096491763 0.7489636980394857 0.0
1.952511813454414 1.110576661474517 0.0
2.744352083917141 0.687787375233183 0.0
1.566252941493004 1.383661493752942 0.0
2.437660520624072 0.8703573012735125 0.0
2.904826075218911 1.261819176983655 0.0
2.305967018083784 1.391390767447104 0.0
2.105729326736999 0.8145314366030645 0.0
2.428967188976762 1.236966721617647 0.0
3.060475488407204 0.1442825789852263 0.0
1.934979199332455 1.852811714602595 0.0
2.095475260770118 0.4348597444661615 0.0
2.914777085426361 1.759093454264707 0.0
2.084827330449114 0.2414252069642749 0.0
2.207128288422204 1.315477221019454 0.0
2.658751426439581 0.5773232450959589 0.0
2.612380011409894 1.114144853433198 0.0
2.897371573983894 1.569769587751228 0.0
0.5001010519014215 1.226918930408543 0.0
4.499898948098578 0.7730810695914568 0.0
2.753086810589338 1.690362801865437 0.0
2.246793053318422 0.3097947118702842 0.0
3.391580469276819 0.5673489147038103 0.0
3.035026488699165 0.6179797538177514 0.0
2.449819864663089 1.055109427275025 0.0
2.27653308928065 1.054384468582349 0.0
2.794675693196835 1.418106589018447 0.0
2.778866980525137 1.083577784614141 0.0
2.244522876020972 0.1116738824400324 0.0
2.755477123979027 1.888326117559968 0.0
2.323887028942199 0.8604475039748537 0.0
2.204900210979926 1.747483509451062 0.0
2.794853185869193 0.2526222191943996 0.0
2.320767315286541 1.530441598510029 0.0
1.550828143561484 1.606851581022188 0.0
2.796593663741882 1.288013595743853 0.0
3.436143660897262 0.3940652474171653 0.0
2.682379445750112 0.4493639922429763 0.0
3.242313228541417 0.154845696987206 0.0
1.75965289115187 1.844031320058407 0.0
1.3642341383496 1.159631408929946 0.0
1.980047380836635 1.36362624976796 0.0
2.070303834520089 1.451946835577872 0.0
2.55866460451515 1.229901920133861 0.0
4.26844523535139 0.499131154814159 0.0
0.7315547646486098 1.500868845185841 0.0
2.716116351489881 1.570657861970705 0.0
2.283245236086922 0.4299499540566049 0.0
4.50573905238033 0.204273435313806 0.0
0.4942609476196695 1.795726564686194 0.0
3.605070352001925 0.644396355247622 0.0
3.171946621948212 0.9019117497969773 0.0
3.40309695214227 0.1789624633199048 0.0
1.59690304785773 1.821037536680094 0.0
4.776800700354217 0.5074282293075529 0.0
0.2231992996457826 1.492571770692447 0.0
1.293020597407515 1.839015256431498 0.0
3.706979402592485 0.1609847435685022 0.0
1.398281395597716 1.351857389185529 0.0
2.880181082677912 0.1378504756446906 0.0
2.119200639021148 1.861833157788504 0.0
2.408646939494887 0.2452196658480275 0.0
2.591353060505113 1.754780334151973 0.0
1.146570081566377 1.160946826906423 0.0
3.853429918433624 0.8390531730935771 0.0
2.920846657438631 1.149071660619678 0.0
2.101132283911678 1.226382957654413 0.0
2.903672483971366 0.7774662795474147 0.0
2.516386521935266 0.571665255016536 0.0
2.475412447847437 1.444413760085193 0.0
2.903041575637174 0.5510905120278109 0.0
3.666476299189054 0.8553176740217776 0.0
1.558137053653031 1.119389262041809 0.0
3.867595456948903 0.1475874639835382 0.0
1.132404543051097 1.852412536016462 0.0
2.635017655944937 0.9730281566682446 0.0
2.436667490139274 1.901171080200935 0.0
2.563332509860726 0.09882891979906516 0.0
2.091598337090247 1.040423151014485 0.0
0.8316881289508771 1.172977685150089 0.0
4.168311871049123 0.827022314849911 0.0
3.648565743761548 0.3681286963687066 0.0
1.355037313653319 1.636865536133179 0.0
2.58412781071005 1.576586299624529 0.0
2.41587218928995 0.4234137003754711 0.0
2.083716468691946 0.6634832154935376 0.0
1.843942294678346 1.256771801786488 0.0
[...]
POINT_DATA 380

VECTORS Velocity float
0.0000000000000000 0.0000000000000000 0.0
0.0000000000000000 0.0000000000000000 0.0
0.0000000000000000 0.0000000000000000 0.0
0.0000000000000000 0.0000000000000000 0.0
0.0000000000000000 0.0000000000000000 0.0
0.9186191437322727 -0.1326603128934888 0.0
0.0000000000000000 0.0000000000000000 0.0
0.0000000000000000 0.0000000000000000 0.0
0.0000000000000000 0.0000000000000000 0.0
0.0000000000000000 0.0000000000000000 0.0
0.0000000000000000 0.0000000000000000 0.0
0.0000000000000000 0.0000000000000000 0.0
0.0000000000000000 0.0000000000000000 0.0
0.0000000000000000 0.0000000000000000 0.0
0.0000000000000000 0.0000000000000000 0.0
0.0000000000000000 0.0000000000000000 0.0
0.0000000000000000 0.0000000000000000 0.0
0.0000000000000000 0.0000000000000000 0.0
0.0000000000000000 0.0000000000000000 0.0
0.0000000000000000 0.0000000000000000 0.0
0.0000000000000000 0.0000000000000000 0.0
0.0000000000000000 0.0000000000000000 0.0
0.0000000000000000 0.0000000000000000 0.0
0.0000000000000000 0.0000000000000000 0.0
0.0000000000000000 0.0000000000000000 0.0
0.0000000000000000 0.0000000000000000 0.0
0.0000000000000000 0.0000000000000000 0.0
0.0000000000000000 0.0000000000000000 0.0
0.0000000000000000 0.0000000000000000 0.0
0.0000000000000000 0.0000000000000000 0.0
0.0000000000000000 0.0000000000000000 0.0
0.0000000000000000 0.0000000000000000 0.0
0.0000000000000000 0.0000000000000000 0.0
0.0000000000000000 0.0000000000000000 0.0
0.0000000000000000 0.0000000000000000 0.0
0.0000000000000000 0.0000000000000000 0.0
0.0000000000000000 0.0000000000000000 0.0
0.0000000000000000 0.0000000000000000 0.0
0.0000000000000000 0.0000000000000000 0.0
0.0000000000000000 0.0000000000000000 0.0
0.0000000000000000 0.0000000000000000 0.0
0.0000000000000000 0.0000000000000000 0.0
0.0000000000000000 0.0000000000000000 0.0
1.1559390645235565 0.3604007117597691 0.0
0.7960576124176409 0.0571805035016180 0.0
1.1385350355646455 -0.2994866388938262 0.0
0.0000000000000000 0.0000000000000000 0.0
0.0000000000000000 0.0000000000000000 0.0
0.0000000000000000 0.0000000000000000 0.0
0.0000000000000000 0.0000000000000000 0.0
0.0000000000000000 0.0000000000000000 0.0
0.0000000000000000 0.0000000000000000 0.0
0.0000000000000000 0.0000000000000000 0.0
0.0000000000000000 0.0000000000000000 0.0
0.0000000000000000 0.0000000000000000 0.0
0.0000000000000000 0.0000000000000000 0.0
0.0000000000000000 0.0000000000000000 0.0
0.0000000000000000 0.0000000000000000 0.0
0.0000000000000000 0.0000000000000000 0.0
0.0000000000000000 0.0000000000000000 0.0
0.0000000000000000 0.0000000000000000 0.0
0.0000000000000000 0.0000000000000000 0.0
0.0000000000000000 0.0000000000000000 0.0
0.0000000000000000 0.0000000000000000 0.0
0.0000000000000000 0.0000000000000000 0.0
0.0000000000000000 0.0000000000000000 0.0
0.0000000000000000 0.0000000000000000 0.0
0.0000000000000000 0.0000000000000000 0.0
0.0000000000000000 0.0000000000000000 0.0
0.0000000000000000 0.0000000000000000 0.0
0.0000000000000000 0.0000000000000000 0.0
0.0000000000000000 0.0000000000000000 0.0
0.0000000000000000 0.0000000000000000 0.0
0.0000000000000000 0.0000000000000000 0.0
0.0000000000000000 0.0000000000000000 0.0
0.0000000000000000 0.0000000000000000 0.0
0.0000000000000000 0.0000000000000000 0.0
0.0000000000000000 0.0000000000000000 0.0
0.0000000000000000 0.0000000000000000 0.0
1.0000000000000000 0.0000000000000000 0.0
1.0000000000000000 0.0000000000000000 0.0
1.0000000000000000 0.0000000000000000 0.0
0.8042104182346840 -0.6799267394063943 0.0
0.7216370674846986 -0.6910928492987184 0.0
1.4164351965949256 -0.2539933459591229 0.0
1.3552405068981441 -0.2609186805092985 0.0
0.5562548323699452 -1.0766771703581686 0.0
0.3766601697612333 -0.1912785086170017 0.0
0.3439906306926729 -0.1975063085226465 0.0
0.5326058066494084 -1.1224708158365575 0.0
1.5553410969754446 -0.0835671660368337 0.0
1.5835532707774556 -0.1073425394527696 0.0
0.2825373421344035 -0.6688485840385650 0.0
0.2652450500715861 -0.6425918933362079 0.0
1.0899358526845297 -0.9924519980421298 0.0
0.7439320456110434 -0.1735251980795618 0.0
0.7262898380637384 -0.1699725184902841 0.0
1.0971468050004323 -0.8940649579502237 0.0
1.5972041145422944 -0.0135177725545635 0.0
1.5944609347078957 -0.0033159720461051 0.0
1.4929031395896675 -0.4007686748741417 0.0
1.4848608660151250 -0.1070460136103668 0.0
1.4627136779145085 -0.3639499473730242 0.0
0.2252295894908657 -0.9714858658625594 0.0
1.4931616307137130 -0.0929118022743406 0.0
1.5828627887523166 0.0107069663077177 0.0
1.5326838007905348 0.0350320771090930 0.0
1.1566754559034214 -0.4512480167953571 0.0
0.6300062268085471 -0.9650405849449308 0.0
1.0666347872898976 -0.4073078043011014 0.0
0.6219078174797789 -0.9679000515063910 0.0
0.1574080768471389 -0.0560148890165762 0.0
0.1347890231802084 -0.0615898098595168 0.0
1.1852539139589431 -0.0748942390794216 0.0
1.1443567007756843 -0.0751191290073822 0.0
0.1611632154878584 -0.3708808630121875 0.0
0.1241776974299945 -0.3342229568694396 0.0
0.1355582813762345 -0.8586650579289029 0.0
0.4642545244082223 -0.8541651678043775 0.0
0.4740300301352152 -0.4964406988149879 0.0
0.5208236474729623 -0.4734251626953004 0.0
1.3816340937825788 -0.0152213404761950 0.0
1.3002976619724020 -0.0838589996664251 0.0
0.8589948358370723 -0.1217019029836862 0.0
0.8961065032620152 -0.1159350919524465 0.0
0.5788374778895014 -1.1502268381882277 0.0
0.6151541316112121 -1.2427865807003990 0.0
0.3868445157153305 -0.0239654799708873 0.0
0.3725504792355260 -0.0291850137541378 0.0
1.2835471468979947 0.0180708284031321 0.0
1.2849451580543578 0.0173576876949693 0.0
0.4310912789512796 -0.9075457414286220 0.0
1.2579090243078226 -0.0144693692013241 0.0
0.8089887672006111 -0.9749585108761063 0.0
0.7432660672586769 -0.3953994706582412 0.0
0.7611970033683816 -0.4313213098806338 0.0
-0.0335222233531114 -0.4978027393784482 0.0
1.4016699571246645 -0.5708826858534833 0.0
0.0515611782295736 -0.4873134179908812 0.0
1.3432901695063004 0.0076705114122655 0.0
1.3431272021718033 0.0172301159002251 0.0
1.2034062561212924 -0.8699997508556997 0.0
1.3770307219374551 -0.0381259899411913 0.0
1.3752548360753731 -0.0541606308961719 0.0
0.1336836841605752 -0.1250920824024341 0.0
0.1146586493455123 -0.1262874829494102 0.0
0.8033793223364163 -0.0079496251972576 0.0
0.7979605811006677 -0.0186799224637079 0.0
1.3255300617083903 -0.6610057592757590 0.0
1.2635175141260748 -0.1231699772264389 0.0
1.3462887323697330 -0.5640296788670289 0.0
1.4906032190311032 -0.0846331743687059 0.0
1.2042026821290277 -0.0676686430082849 0.0
0.6020047161355792 -1.0154726922550836 0.0
0.8381198318139012 -0.8195397129000800 0.0
0.7482145978109480 -1.1219972120766644 0.0
1.1722510757744373 -0.0868432999105846 0.0
0.5410099606171285 -0.7320619913876553 0.0
1.0638274079684931 -0.0493179281819211 0.0
1.0659232629364881 -0.0490120441355658 0.0
1.5307999781443322 -0.0866256827685424 0.0
0.1532366498390025 -0.0408432610752422 0.0
0.1426153206473443 -0.0410947792195694 0.0
0.9368369674867588 -0.8097348202868894 0.0
0.0479831600983032 -0.2757113456062524 0.0
0.4753710569649769 -0.6456035961224780 0.0
0.2016539227159059 -0.9551665337348900 0.0
1.5195169291341684 -0.2006844095532639 0.0
1.2253178156378446 -0.2189559967921026 0.0
1.2090028742377461 -0.2004779468624304 0.0
1.1334835056071622 -0.2652691644014419 0.0
0.5042346961433040 -0.2036577384547730 0.0
0.5290401974349715 -0.1916522211162661 0.0
1.1973109350075770 -0.2779132895710410 0.0
1.0481166805657931 -0.0215404070717578 0.0
1.0457626758439067 -0.0225593778961846 0.0
0.9850741514911034 -0.0998320565296305 0.0
1.0214640509310893 -0.1009754197564621 0.0
0.3213237994385776 -0.0487448285900703 0.0
0.3166563781370222 -0.0480594123703926 0.0
0.8706900998586169 -0.0384199319137922 0.0
1.5117835492897802 -0.1829314818158640 0.0
0.0956788423290415 0.0018879440878805 0.0
0.0771613930473922 -0.0037206890396950 0.0
1.5291157374344202 -0.0949879638400536 0.0
1.5576833880537633 -0.1176427372183648 0.0
0.1052573606072603 -0.6404070078613884 0.0
1.0968503364881201 0.2293350613986905 0.0
1.0969961100945784 0.2291352625842601 0.0
0.3102635765271165 -0.4871290191590735 0.0
0.2799424694976293 -0.4612969864550685 0.0
0.6141228212754666 -0.8525339402906397 0.0
0.9376235112669438 -0.0652020784610325 0.0
0.9413495397968416 -0.2095506632207347 0.0
0.0479003959918021 -0.2412947108901987 0.0
0.4609943745593099 -1.1496096436155689 0.0
0.2405634585080743 -0.8577151819199321 0.0
0.8841330838466485 -0.1435220335619623 0.0
1.0191583241243276 -0.7214739494785506 0.0
1.5366451857708612 -0.0724405255197714 0.0
0.5362695914750782 -0.9720296947603576 0.0
-0.0107599373415006 -0.4097256670878495 0.0
0.9828848167845633 -0.5850079550910642 0.0
0.0269743207744658 -0.4045406099090345 0.0
0.7279459284779607 -0.8720408524846625 0.0
0.4519294777438507 -0.0190085820473313 0.0
0.4580057040790080 -0.0152148614260182 0.0
0.0829840653328959 -0.1384824840250758 0.0
0.1008439836855826 -0.0238067855633389 0.0
0.0816069915545938 -0.0268976813425076 0.0
1.1722572264187339 -0.7307895826464833 0.0
0.8771908519792475 -0.5516999809399697 0.0
0.5499882330787352 -1.0032036089041858 0.0
0.0681301282715041 -0.1501710896603525 0.0
0.8679606477475554 0.1637934846545347 0.0
0.8427701698680110 0.1315043916581943 0.0
0.2519502923422541 -0.1661383946836045 0.0
0.2258860800791349 -0.1696422692216804 0.0
1.5957874863608843 -0.1146222666025282 0.0
1.4987201475778194 -0.3447691855070945 0.0
0.6201061140580185 -1.0277160375181507 0.0
0.6954036361250304 -1.1339404120052787 0.0
0.1630241131012269 -0.4790875164260259 0.0
0.3937644746837984 -1.1369498097182755 0.0
0.0781541709577162 -0.0298558890309298 0.0
0.0886350185065076 -0.0290174729458560 0.0
0.4334405574672089 -1.0294723074898500 0.0
0.7031897341880003 -0.1262332538709196 0.0
0.6841420701056560 -0.1214611168434515 0.0
0.9284745131977897 -0.3708452816773437 0.0
1.3504677307331407 -0.0346029732827999 0.0
0.1487896584895317 -0.6714374243404745 0.0
1.3089832001134294 -0.0485927541949498 0.0
0.9046697074575978 -0.3567814138538654 0.0
0.5380192922592862 -0.0290948957929597 0.0
0.5439392334704782 -0.0318969256166031 0.0
0.8939699873827123 -0.0263649410272093 0.0
1.4565569404398162 -0.3693997839541933 0.0
1.3520528432015930 -0.3951591563440564 0.0
0.5435231041191682 -0.8682817302194904 0.0
1.5961805213359741 -0.0488817436242810 0.0
1.5866812154070840 -0.0427025894538794 0.0
0.2923257784124008 -0.2997897562698272 0.0
0.2606874399818512 -0.3037954144265011 0.0
0.7784271582490188 -0.1413705064570888 0.0
0.8006035629382927 -0.1591129322243262 0.0
1.5367918128387144 -0.0772454061388747 0.0
0.5980777518113174 -0.0746250959214448 0.0
0.6610362293861749 -0.0738836665255370 0.0
0.6721055980850573 -0.0797696564969031 0.0
1.2606477251206178 0.0540785034560053 0.0
1.2106385257352061 0.0452908569948656 0.0
0.6488097633597593 0.0361926497211297 0.0
0.6523858935011544 0.0360174361253894 0.0
1.4467249496920733 -0.0629836897484220 0.0
0.3553485826758172 -0.0556230178974744 0.0
0.3624169928922672 -0.0563549917713379 0.0
0.3291468698602862 -0.1167130769619646 0.0
0.3479859819295977 -0.1139398916286350 0.0
0.7304850475985396 0.0592744505802207 0.0
0.7327600732309962 0.1042709194508112 0.0
-0.0261403750902063 -0.4548496603754920 0.0
1.3059234102445849 -0.7451452791174347 0.0
1.3235464697303405 -0.7935316776109966 0.0
0.6380550635043977 -0.5654921990295261 0.0
0.7024101430818428 -0.4956837597877998 0.0
1.2964482364636691 -0.4120532570927374 0.0
0.6099370379767171 0.0225055973336364 0.0
0.6455794181805543 -0.0290624185775885 0.0
0.5442584817126372 -0.1065414935235017 0.0
0.5459153287732604 -0.1046630171829535 0.0
0.6283381100237521 -1.0811994862692409 0.0
0.1285959452433554 -0.0256583729006834 0.0
0.1242398930947612 -0.0266580374420017 0.0
0.6245038741938694 -0.8881086612232107 0.0
0.6737915010927706 -0.0965784450939965 0.0
0.6724633212490693 -0.1040716759742753 0.0
1.3158181569956147 -0.1225288106312344 0.0
1.3185380169165943 -0.1092296853789265 0.0
0.5126958185906786 -0.2945470781812459 0.0
0.4644070112614280 -0.3027758013368652 0.0
-0.0398409916242311 -0.2332524371820424 0.0
1.3785247530463340 -0.1913822381271477 0.0
0.6445769076666530 -0.9720876800363222 0.0
0.1388271854405240 -0.4915138983355670 0.0
0.4263452096649348 -0.6341583877638614 0.0
1.0164059462395900 -1.0608274568798597 0.0
0.8684671139727831 -1.1631469130576531 0.0
1.4888133493638822 -0.0608675369133617 0.0
1.4863248508904103 -0.0909875187745902 0.0
0.6182344864382419 -1.1896002816665505 0.0
1.0129613228865637 -0.2405681783109995 0.0
0.9790942699721941 -0.2056509793790427 0.0
0.5876679434871861 -0.1475893403067842 0.0
0.5780438218682221 -0.1562741416905313 0.0
1.5333609483334443 -0.1095297780425290 0.0
0.9080377402880532 -1.0039088594178465 0.0
0.3843845980614102 -1.0217251167106696 0.0
1.2014664426705410 -0.1665043905918442 0.0
1.5641363400487136 -0.0837642912178911 0.0
1.5733763109460834 -0.0881894965460291 0.0
1.2463570305761702 -0.1571030410827501 0.0
0.1426539378474870 -0.0062411043616195 0.0
0.1499565377672198 -0.0040937891618006 0.0
0.4454130879587244 0.0641978779347082 0.0
1.3342760094341026 -0.1297109337725875 0.0
1.3328929710943767 0.0018356944026975 0.0
0.4152081951902873 -0.7875915101121719 0.0
0.1913227219615776 -0.2466437882027459 0.0
0.1627299791021931 -0.2352781090458372 0.0
0.2540020216094028 -0.0729910074871676 0.0
0.2321359865740499 -0.0777353999237462 0.0
0.3811298416452187 -0.6093117319815384 0.0
-0.0481154809225808 -0.1696523905970354 0.0
0.8115785386168826 -0.7412489311987158 0.0
0.5236912964271653 0.0364761391142215 0.0
0.5074501003709870 0.0197237912993837 0.0
1.4793685139542931 -0.0449241725328991 0.0
1.4789777380375693 -0.0558154374839197 0.0
0.8962348825888482 -1.0631338098512622 0.0
1.5046934703760044 -0.1887343054788955 0.0
0.4409542084204354 -0.0529627836135050 0.0
0.0855027498839332 -0.0524040970990411 0.0
0.0662803954165155 -0.0509831033626555 0.0
0.3591204308718133 -0.7636004088272881 0.0
0.0380604076821179 -0.1608432999546276 0.0
0.6557059965988796 -0.7675795854752293 0.0
1.3958826991120401 -0.1310707727531183 0.0
0.6449650752120690 -0.3597481622690410 0.0
0.6126850688487281 -0.3870352430587710 0.0
0.5861236313098522 -1.0108049893256141 0.0
0.6716565636228525 0.0791598369911178 0.0
0.6692097010320096 0.0818649266084057 0.0
0.7217719665446147 -0.9892107964648853 0.0
0.0976264060227761 -0.7297318050410643 0.0
0.0991878417886745 -0.5678108246987972 0.0
-0.0134084265949163 -0.1539421587362566 0.0
0.8427394229975875 0.0645361896690342 0.0
0.8064994740591533 0.0951982889029557 0.0
0.8329113309804853 -0.0511334123875028 0.0
0.8037416629156681 -0.0687139288398926 0.0
0.2965459295061515 -0.8657031540904642 0.0
0.7312012760310330 -0.1778366191400873 0.0
0.7065586187961823 -0.8517377314287117 0.0
1.2702409084634090 -0.7608705377207524 0.0
0.5777436518087969 0.0791195316399785 0.0
1.4790462386773930 -0.0096059801400726 0.0
1.4828684239219860 -0.0052886057559378 0.0
1.0648297458028420 -1.1175625131195703 0.0
0.6755814379360698 -1.0025909044759678 0.0
1.3651762850956124 -0.1973116223170341 0.0
0.6637966828050313 -1.0815897499938278 0.0
-0.0038058306062163 -0.5300793043505891 0.0
1.2304615050498953 -0.0992192006905801 0.0
0.3665694533735919 -1.0804909769438473 0.0
1.5796251984219574 -0.1119815651573388 0.0
0.4177219167131803 -0.0066899736951455 0.0
1.5764001141799877 -0.0829355931302004 0.0
1.5475029611803777 -0.0982368131766986 0.0
0.0337311914643544 0.0084072951556919 0.0
0.0463592466317176 0.0114241407995040 0.0
0.5420791523442153 0.0403023877995338 0.0
0.3868778203040097 -0.0631038450354878 0.0
0.0206600306888354 -0.0020792258384430 0.0
0.0282423754352202 -0.0000743626706625 0.0
0.5556202912157033 -0.0360168770382291 0.0
0.5925386333665217 -0.7524484576894608 0.0
0.5600678284032340 -0.0337701976266970 0.0
0.5541566092649296 -0.0263105065050749 0.0
0.7206596403329989 -0.2744961603576834 0.0
0.7536657896858941 -0.2601582538921673 0.0
0.5816984085354755 -0.6390167472095910 0.0
0.3633139733494284 -0.3770288056907328 0.0
0.4021486859550482 -0.3892937267545472 0.0
0.0773890881532286 0.0142775831684254 0.0
0.0580803969636008 0.0102032415721733 0.0
1.4099895534762297 -0.5361160022169390 0.0
1.2113469406156065 -0.6138985173678777 0.0
0.8409383199554178 -0.5236562455384365 0.0
0.8563299807079396 -0.5102153269388354 0.0
