# vtk DataFile Version 3.0
LucasCarvalhoTCC Results
ASCII

DATASET POLYDATA
FIELD FieldData 1
TIME 1 1 double
2.6

POINTS 380 float
0.0 2.0 0.0
2.0 2.0 0.0
3.0 2.0 0.0
3.0 1.0 0.0
5.0 1.0 0.0
5.0 0.0 0.0
3.0 0.0 0.0
2.0 0.0 0.0
2.0 1.0 0.0
0.0 1.0 0.0
0.2643114543905713 2.0 0.0
0.5169795502969444 2.0 0.0
0.7585171880292413 2.0 0.0
0.9894145836600268 2.0 0.0
1.210140497826619 2.0 0.0
1.421143008568911 2.0 0.0
1.622850459538253 2.0 0.0
1.815672303789548 2.0 0.0
2.188552664328277 2.0 0.0
2.359329284173903 2.0 0.0
2.514005696104645 2.0 0.0
2.654099788331341 2.0 0.0
2.780986322989182 2.0 0.0
2.895910470953052 2.0 0.0
3.0 1.9 0.0
3.0 1.8 0.0
3.0 1.7 0.0
3.0 1.6 0.0
3.0 1.5 0.0
3.0 1.4 0.0
3.0 1.3 0.0
3.0 1.2 0.0
3.0 1.1 0.0
3.105031513416626 1.0 0.0
3.221094637894669 1.0 0.0
3.349348047908936 1.0 0.0
3.491072094154001 1.0 0.0
3.647681638607018 1.0 0.0
3.820740106959136 1.0 0.0
4.011975186625977 1.0 0.0
4.223295996958671 1.0 0.0
4.456812096249916 1.0 0.0
4.714854728122151 1.0 0.0
5.0 0.7500000000000003 0.0
5.0 0.5000000000000012 0.0
5.0 0.2500000000000011 0.0
4.735688545609428 0.0 0.0
4.483020449703056 0.0 0.0
4.241482811970759 0.0 0.0
4.010585416339973 0.0 0.0
3.789859502173381 0.0 0.0
3.578856991431089 0.0 0.0
3.377149540461747 0.0 0.0
3.184327696210452 0.0 0.0
2.811447335671723 0.0 0.0
2.640670715826097 0.0 0.0
2.485994303895355 0.0 0.0
2.345900211668659 0.0 0.0
2.219013677010818 0.0 0.0
2.104089529046948 0.0 0.0
2.0 0.1 0.0
2.0 0.2 0.0
2.0 0.3 0.0
2.0 0.4 0.0
2.0 0.5 0.0
2.0 0.6 0.0
2.0 0.7 0.0
2.0 0.8 0.0
2.0 0.9 0.0
1.894968486583374 1.0 0.0
1.77890536210533 1.0 0.0
1.650651952091063 1.0 0.0
1.508927905845999 1.0 0.0
1.352318361392982 1.0 0.0
1.179259893040864 1.0 0.0
0.9880248133740233 1.0 0.0
0.7767040030413299 1.0 0.0
0.5431879037500846 1.0 0.0
0.2851452718778493 1.0 0.0
0.0 1.25 0.0
0.0 1.499999999999999 0.0
0.0 1.749999999999999 0.0
2.426045913985508 1.348290599604586 0.0
2.562221387987337 0.6558377602558874 0.0
1.966703786708101 1.492474555319359 0.0
3.033486484223225 0.4973568340887861 0.0
2.371610747520728 0.97814425147097 0.0
2.648098402859118 1.648016516253387 0.0
2.351901597140882 0.3519834837466129 0.0
2.694321138879857 1.061432730999581 0.0
1.441644339445862 1.496646809257773 0.0
3.554831642064292 0.501744031268764 0.0
2.720742750697982 1.350625068836981 0.0
2.282037541072919 0.639419348257894 0.0
2.813390610951134 0.7911761792959446 0.0
2.310700631729327 1.679155452525512 0.0
2.688751528716965 0.3206838402855661 0.0
2.211165393176843 1.213708510063781 0.0
0.9449004170027906 1.496357611130017 0.0
4.05509958299721 0.5036423888699835 0.0
3.025501657200047 0.7528388163714679 0.0
1.714778657098197 1.300039655550584 0.0
1.958264922640818 1.245975101752485 0.0
2.206386339371814 0.8500000000000001 0.0
3.336706349465057 0.704398544338507 0.0
4.529565928894533 0.555233644424822 0.0
0.4704340711054673 1.444766355575178 0.0
2.186983355180128 1.461437746541105 0.0
2.553715879020142 0.8859594914241276 0.0
2.782212276375736 0.5474565156445963 0.0
2.500206140967324 1.148517546040804 0.0
2.803373162317882 1.783880361314082 0.0
2.196626837682118 0.2161196386859174 0.0
1.735623536927746 1.664129737658362 0.0
3.268802735993943 0.3358439745752063 0.0
2.799454045372581 1.51553500056848 0.0
2.18762015375897 0.4992029885790829 0.0
2.813478812948685 1.18678600527921 0.0
2.400994471757771 0.7612313552289275 0.0
2.405444563947088 0.5311203927463914 0.0
2.583195945356847 1.473216966241769 0.0
3.734210872783077 0.7260959952797862 0.0
1.256500988572085 1.265010492624376 0.0
2.938353069321001 0.2909212553641365 0.0
2.061245308362322 1.709221243241415 0.0
2.182240881432738 1.001025052084926 0.0
2.830214026212788 0.9796244234047695 0.0
2.49023894829247 1.787687811117195 0.0
2.50976105170753 0.2123121888828049 0.0
1.194806886820808 1.686899295332255 0.0
3.805193113179192 0.3131007046677451 0.0
2.655039231860651 1.208917360245127 0.0
1.493530449555064 1.231198576616718 0.0
2.345622594939228 1.152685186835846 0.0
2.41380980106708 1.521513100394759 0.0
2.58979513084283 0.4863225267637531 0.0
2.135472648094309 0.7246460081196311 0.0
2.912574128751924 0.660128736186259 0.0
2.866043013605144 1.353074765380587 0.0
0.6928324624395237 1.69170809873467 0.0
4.307167537560476 0.3082919012653306 0.0
2.071506740582853 1.128535871978767 0.0
0.6831902494895832 1.302725441792086 0.0
4.316809750510417 0.6972745582079137 0.0
2.85534466702333 1.667491236848871 0.0
2.141886244104996 0.336139391754002 0.0
1.447743165823209 1.773242752731258 0.0
3.554386585610856 0.224002072703283 0.0
2.96485662756902 0.8593908564801968 0.0
3.240425509636175 0.8099760775594669 0.0
2.088410584923666 1.339747073830609 0.0
3.277530767974837 0.4939020807639749 0.0
3.534313505233912 0.7935179117986669 0.0
2.546683861402325 1.011736398479819 0.0
2.664793655038503 0.758149595673951 0.0
2.7009922066801 0.9086021996324817 0.0
1.844652141496971 1.153158997353228 0.0
2.575910747861113 1.316876286520138 0.0
3.994328863599566 0.7454319923658932 0.0
1.005671136400434 1.254568007634107 0.0
1.722192091537185 1.482888323667831 0.0
2.644751416415203 1.850904811198953 0.0
2.355248583584797 0.1490951888010467 0.0
2.31560379269905 1.25706851182614 0.0
2.129697972466254 0.5864366202645266 0.0
2.417220568140766 0.6397160301847872 0.0
2.867945749403976 1.069821281672812 0.0
3.182303046124178 0.6739667261124369 0.0
4.702774994215813 0.2953677284017739 0.0
0.2972250057841874 1.704632271598226 0.0
2.90043748182062 0.4316738443013928 0.0
2.486081387366873 0.3514585853722887 0.0
2.513918612633127 1.648541414627711 0.0
2.086778258621772 1.563111332603502 0.0
4.025359850459486 0.2638518716814435 0.0
0.9746401495405139 1.736148128318556 0.0
3.116389458098145 0.2933651166122753 0.0
1.885410353788165 1.707062521230272 0.0
2.327134732627959 1.833634230002939 0.0
2.672865267372041 0.1663657699970617 0.0
1.675899428547673 1.15999616666306 0.0
1.858973331615206 1.373382723203102 0.0
2.860266039499884 1.862282581689995 0.0
2.139733960500116 0.1377174183100045 0.0
1.257473476073173 1.479081588926576 0.0
3.731624273377778 0.5208146070195914 0.0
2.115038607594509 0.9238947313642476 0.0
0.2734661728051435 1.270630989444945 0.0
4.726533827194856 0.7293690105550548 0.0
2.699965708650878 1.465007479364728 0.0
2.298365077320068 0.5341069340550768 0.0
2.510583000486659 0.7602856732279889 0.0
3.370667741214912 0.8392397884376295 0.0
3.067541604254986 0.8806352314757129 0.0
2.90073732483139 1.443475210354718 0.0
2.264071206758208 0.9501943312745662 0.0
2.278663096491763 0.7489636980394857 0.0
1.952511813454414 1.110576661474517 0.0
2.744352083917141 0.687787375233183 0.0
1.566252941493004 1.383661493752942 0.0
2.437660520624072 0.8703573012735125 0.0
2.904826075218911 1.261819176983655 0.0
2.305967018083784 1.391390767447104 0.0
2.105729326736999 0.8145314366030645 0.0
2.428967188976762 1.236966721617647 0.0
3.060475488407204 0.1442825789852263 0.0
1.934979199332455 1.852811714602595 0.0
2.095475260770118 0.4348597444661615 0.0
2.914777085426361 1.759093454264707 0.0
2.084827330449114 0.2414252069642749 0.0
2.207128288422204 1.315477221019454 0.0
2.658751426439581 0.5773232450959589 0.0
2.612380011409894 1.114144853433198 0.0
2.897371573983894 1.569769587751228 0.0
0.5001010519014215 1.226918930408543 0.0
4.499898948098578 0.7730810695914568 0.0
2.753086810589338 1.690362801865437 0.0
2.246793053318422 0.3097947118702842 0.0
3.391580469276819 0.5673489147038103 0.0
3.035026488699165 0.6179797538177514 0.0
2.449819864663089 1.055109427275025 0.0
2.27653308928065 1.054384468582349 0.0
2.794675693196835 1.418106589018447 0.0
2.778866980525137 1.083577784614141 0.0
2.244522876020972 0.1116738824400324 0.0
2.755477123979027 1.888326117559968 0.0
2.323887028942199 0.8604475039748537 0.0
2.204900210979926 1.747483509451062 0.0
2.794853185869193 0.2526222191943996 0.0
2.320767315286541 1.530441598510029 0.0
1.550828143561484 1.606851581022188 0.0
2.796593663741882 1.288013595743853 0.0
3.436143660897262 0.3940652474171653 0.0
2.682379445750112 0.4493639922429763 0.0
3.242313228541417 0.154845696987206 0.0
1.75965289115187 1.844031320058407 0.0
1.3642341383496 1.159631408929946 0.0
1.980047380836635 1.36362624976796 0.0
2.070303834520089 1.451946835577872 0.0
2.55866460451515 1.229901920133861 0.0
4.26844523535139 0.499131154814159 0.0
0.7315547646486098 1.500868845185841 0.0
2.716116351489881 1.570657861970705 0.0
2.283245236086922 0.4299499540566049 0.0
4.50573905238033 0.204273435313806 0.0
0.4942609476196695 1.795726564686194 0.0
3.605070352001925 0.644396355247622 0.0
3.171946621948212 0.9019117497969773 0.0
3.40309695214227 0.1789624633199048 0.0
1.59690304785773 1.821037536680094 0.0
4.776800700354217 0.5074282293075529 0.0
0.2231992996457826 1.492571770692447 0.0
1.293020597407515 1.839015256431498 0.0
3.706979402592485 0.1609847435685022 0.0
1.398281395597716 1.351857389185529 0.0
2.880181082677912 0.1378504756446906 0.0
2.119200639021148 1.861833157788504 0.0
2.408646939494887 0.2452196658480275 0.0
2.591353060505113 1.754780334151973 0.0
1.146570081566377 1.160946826906423 0.0
3.853429918433624 0.8390531730935771 0.0
2.920846657438631 1.149071660619678 0.0
2.101132283911678 1.226382957654413 0.0
2.903672483971366 0.7774662795474147 0.0
2.516386521935266 0.571665255016536 0.0
2.475412447847437 1.444413760085193 0.0
2.903041575637174 0.5510905120278109 0.0
3.666476299189054 0.8553176740217776 0.0
1.558137053653031 1.119389262041809 0.0
3.867595456948903 0.1475874639835382 0.0
1.132404543051097 1.852412536016462 0.0
2.635017655944937 0.9730281566682446 0.0
2.436667490139274 1.901171080200935 0.0
2.563332509860726 0.09882891979906516 0.0
2.091598337090247 1.040423151014485 0.0
0.8316881289508771 1.172977685150089 0.0
4.168311871049123 0.827022314849911 0.0
3.648565743761548 0.3681286963687066 0.0
1.355037313653319 1.636865536133179 0.0
2.58412781071005 1.576586299624529 0.0
2.41587218928995 0.4234137003754711 0.0
2.083716468691946 0.6634832154935376 0.0
1.843942294678346 1.256771801786488 0.0
[...]
POINT_DATA 380

VECTORS Velocity float
0.0000000000000000 0.0000000000000000 0.0
0.0000000000000000 0.0000000000000000 0.0
0.0000000000000000 0.0000000000000000 0.0
0.0000000000000000 0.0000000000000000 0.0
0.0000000000000000 0.0000000000000000 0.0
0.9186870538026478 -0.1330309520391172 0.0
0.0000000000000000 0.0000000000000000 0.0
0.0000000000000000 0.0000000000000000 0.0
0.0000000000000000 0.0000000000000000 0.0
0.0000000000000000 0.0000000000000000 0.0
0.0000000000000000 0.0000000000000000 0.0
0.0000000000000000 0.0000000000000000 0.0
0.0000000000000000 0.0000000000000000 0.0
0.0000000000000000 0.0000000000000000 0.0
0.0000000000000000 0.0000000000000000 0.0
0.0000000000000000 0.0000000000000000 0.0
0.0000000000000000 0.0000000000000000 0.0
0.0000000000000000 0.0000000000000000 0.0
0.0000000000000000 0.0000000000000000 0.0
0.0000000000000000 0.0000000000000000 0.0
0.0000000000000000 0.0000000000000000 0.0
0.0000000000000000 0.0000000000000000 0.0
0.0000000000000000 0.0000000000000000 0.0
0.0000000000000000 0.0000000000000000 0.0
0.0000000000000000 0.0000000000000000 0.0
0.0000000000000000 0.0000000000000000 0.0
0.0000000000000000 0.0000000000000000 0.0
0.0000000000000000 0.0000000000000000 0.0
0.0000000000000000 0.0000000000000000 0.0
0.0000000000000000 0.0000000000000000 0.0
0.0000000000000000 0.0000000000000000 0.0
0.0000000000000000 0.0000000000000000 0.0
0.0000000000000000 0.0000000000000000 0.0
0.0000000000000000 0.0000000000000000 0.0
0.0000000000000000 0.0000000000000000 0.0
0.0000000000000000 0.0000000000000000 0.0
0.0000000000000000 0.0000000000000000 0.0
0.0000000000000000 0.0000000000000000 0.0
0.0000000000000000 0.0000000000000000 0.0
0.0000000000000000 0.0000000000000000 0.0
0.0000000000000000 0.0000000000000000 0.0
0.0000000000000000 0.0000000000000000 0.0
0.0000000000000000 0.0000000000000000 0.0
1.1552681445183963 0.3638615661465696 0.0
0.7957378611715389 0.0627915797071469 0.0
1.1395079450949295 -0.2968656792878812 0.0
0.0000000000000000 0.0000000000000000 0.0
0.0000000000000000 0.0000000000000000 0.0
0.0000000000000000 0.0000000000000000 0.0
0.0000000000000000 0.0000000000000000 0.0
0.0000000000000000 0.0000000000000000 0.0
0.0000000000000000 0.0000000000000000 0.0
0.0000000000000000 0.0000000000000000 0.0
0.0000000000000000 0.0000000000000000 0.0
0.0000000000000000 0.0000000000000000 0.0
0.0000000000000000 0.0000000000000000 0.0
0.0000000000000000 0.0000000000000000 0.0
0.0000000000000000 0.0000000000000000 0.0
0.0000000000000000 0.0000000000000000 0.0
0.0000000000000000 0.0000000000000000 0.0
0.0000000000000000 0.0000000000000000 0.0
0.0000000000000000 0.0000000000000000 0.0
0.0000000000000000 0.0000000000000000 0.0
0.0000000000000000 0.0000000000000000 0.0
0.0000000000000000 0.0000000000000000 0.0
0.0000000000000000 0.0000000000000000 0.0
0.0000000000000000 0.0000000000000000 0.0
0.0000000000000000 0.0000000000000000 0.0
0.0000000000000000 0.0000000000000000 0.0
0.0000000000000000 0.0000000000000000 0.0
0.0000000000000000 0.0000000000000000 0.0
0.0000000000000000 0.0000000000000000 0.0
0.0000000000000000 0.0000000000000000 0.0
0.0000000000000000 0.0000000000000000 0.0
0.0000000000000000 0.0000000000000000 0.0
0.0000000000000000 0.0000000000000000 0.0
0.0000000000000000 0.0000000000000000 0.0
0.0000000000000000 0.0000000000000000 0.0
0.0000000000000000 0.0000000000000000 0.0
1.0000000000000000 0.0000000000000000 0.0
1.0000000000000000 0.0000000000000000 0.0
1.0000000000000000 0.0000000000000000 0.0
0.8795316062355446 -0.7661057718591429 0.0
0.7745083118648241 -0.7792177190234104 0.0
1.4944711567872804 -0.2595976742800227 0.0
1.4362439620573848 -0.2572005335440102 0.0
0.5759005976115021 -1.1596379412233788 0.0
0.3097768042132792 -0.2034411686519000 0.0
0.2739844140580582 -0.2011803200915056 0.0
0.5597946325353162 -1.1927397957722776 0.0
1.5729574050789221 -0.0793659243626894 0.0
1.6089507888388737 -0.1160892476189669 0.0
0.2781678154224705 -0.7012556377316710 0.0
0.2577212758822969 -0.6425116679198791 0.0
1.1353142193987718 -1.0031729314778548 0.0
0.7124792209004823 -0.1874317079328406 0.0
0.6829578102056095 -0.1767903231112833 0.0
1.1394837922078873 -0.9089880156946711 0.0
1.6000463907431424 -0.0180405115080135 0.0
1.5974873775131682 -0.0076970341786999 0.0
1.4936323551166841 -0.3703479049492980 0.0
1.5003309779092737 -0.0724663078224831 0.0
1.4469385280834979 -0.3322580631722367 0.0
0.2478444903953344 -0.8895999733294950 0.0
1.5114175664568288 -0.0726365337463828 0.0
1.5837749125982037 0.0096126431821164 0.0
1.5335295170903986 0.0358159907508289 0.0
1.2493059137468199 -0.4837835040480750 0.0
0.6655922289329445 -1.0979698417212886 0.0
1.1493673065446475 -0.4340785168561473 0.0
0.6594474817760211 -1.1060328461463815 0.0
0.0839804129493463 -0.0694014775273468 0.0
0.0703894760542291 -0.0656121684674160 0.0
1.1871622647747484 -0.0825023528435933 0.0
1.1215710266382530 -0.0885595382389500 0.0
0.1293942837611755 -0.3569129040526781 0.0
0.0960260165179886 -0.3020333946142771 0.0
0.1651318870703061 -0.8000811115372288 0.0
0.4789856039123166 -0.9368938228618304 0.0
0.4705912763563324 -0.5401292061651758 0.0
0.5301650586533542 -0.5287201075648166 0.0
1.3900433622846371 -0.0109994292919647 0.0
1.3058142298960556 -0.0808533578666487 0.0
0.8189045043079672 -0.1248926718609199 0.0
0.8757874176425858 -0.1255237467933305 0.0
0.5662325412751368 -1.0488981016998091 0.0
0.6223773203319761 -1.1537760406446711 0.0
0.3269810892571745 -0.0293362664186314 0.0
0.3100595038940530 -0.0341673932904522 0.0
1.2789692490046178 0.0126899708369247 0.0
1.2797596518921308 0.0098785628187850 0.0
0.4537277821453395 -1.0060736345891199 0.0
1.2570742971385374 -0.0023929339406616 0.0
0.8543785159055624 -1.0556887784966398 0.0
0.7729718877754198 -0.4391544675215929 0.0
0.7906514350225732 -0.4770415155403273 0.0
0.0116351903023166 -0.4141972235995293 0.0
1.4798816805689770 -0.5612647739363389 0.0
0.0610610727495607 -0.4369451757771418 0.0
1.3444807260891329 0.0065931261522229 0.0
1.3446058655597404 0.0150479087680106 0.0
1.1290852505607576 -0.7879469284366526 0.0
1.3763134525658935 -0.0383459643653105 0.0
1.3739940193877300 -0.0563887624412709 0.0
0.0718628018756841 -0.1266141484774969 0.0
0.0619428691920804 -0.1151399489774433 0.0
0.7928626940666348 -0.0093085491000763 0.0
0.7793132638228464 -0.0252647990020830 0.0
1.2611762484962814 -0.5996149360725507 0.0
1.2450608086353379 -0.1064827217336922 0.0
1.4241312670989419 -0.5669448259672950 0.0
1.5298518918943800 -0.0911500883283707 0.0
1.2048042750173833 -0.0637752068856315 0.0
0.6366553925837528 -1.1582162451233808 0.0
0.9013887018972734 -0.9100352698091461 0.0
0.7842543120274972 -1.2022983524653412 0.0
1.0961131483191993 -0.0667859135788575 0.0
0.5742351860670840 -0.8356185202018424 0.0
1.0655988713577349 -0.0509568497019919 0.0
1.0671874047267527 -0.0516775349890636 0.0
1.5718775303834438 -0.0745210433209545 0.0
0.1123033945883682 -0.0399932270288171 0.0
0.1025399043023407 -0.0385127102994590 0.0
1.0092433848865521 -0.8789167568365572 0.0
0.0444527161480216 -0.2303443404768468 0.0
0.4839502722742885 -0.7131946088506921 0.0
0.2371294014570222 -0.8436176334570330 0.0
1.5563579295162582 -0.1736139330132681 0.0
1.2286779103961432 -0.2190881259273318 0.0
1.2101523080468137 -0.2004353371493254 0.0
1.1736892584583776 -0.2663787995821381 0.0
0.4465977962364635 -0.2154504725741771 0.0
0.4761648491689559 -0.2068157348323253 0.0
1.2495462369695620 -0.2901808420448679 0.0
1.0454514957165977 -0.0255503916511262 0.0
1.0436413400031228 -0.0264154147682520 0.0
0.9480692543350411 -0.1094398116159808 0.0
1.0099186928252208 -0.1141515215681607 0.0
0.2844112478440579 -0.0496009281121814 0.0
0.2769317023894655 -0.0471011548734984 0.0
0.8429367073463322 -0.0233677044345949 0.0
1.5708371475337357 -0.1617614748114081 0.0
0.0318445280900735 -0.0152479204263611 0.0
0.0245614852239432 -0.0150412171682073 0.0
1.5369215810908226 -0.0973906016950859 0.0
1.5689646250218723 -0.1252462515960372 0.0
0.1336801212872896 -0.5411258134451260 0.0
1.0960766950194198 0.2305194530908074 0.0
1.0940190906194323 0.2308809697899134 0.0
0.2919755553120262 -0.5154354111127343 0.0
0.2530307946770856 -0.4652346764814178 0.0
0.6473517790940552 -0.9690609789095712 0.0
0.9289360477328029 -0.0564273569796042 0.0
0.8908579084671523 -0.1875178068298249 0.0
0.0403265826446582 -0.2125404757943186 0.0
0.4688828078245313 -1.1306693490983672 0.0
0.2562615795556639 -0.8595593879255801 0.0
0.8064880415054407 -0.1307100531549856 0.0
1.1093736113841137 -0.7778886326550277 0.0
1.5589398546954316 -0.0561860718612458 0.0
0.5578542133391329 -1.0853220102135988 0.0
0.0213065821730019 -0.3553424200150029 0.0
1.0781212810937781 -0.6433635521884365 0.0
0.0599482098941741 -0.3329982803548282 0.0
0.7837787005254770 -0.9867407138025037 0.0
0.4155533874684231 -0.0205615003805120 0.0
0.4337072703503695 -0.0180354094293834 0.0
0.0532575770781216 -0.1145916664893876 0.0
0.0379842383607331 -0.0328800702512693 0.0
0.0300282776767804 -0.0300466848562867 0.0
1.2563419163262646 -0.7618209998262305 0.0
0.9483129654416299 -0.6081796306080822 0.0
0.5785206844628945 -1.1255315721116879 0.0
0.0386826302763300 -0.1359727761670396 0.0
0.8661510085591526 0.1645398433254901 0.0
0.8391325062622993 0.1312908923851053 0.0
0.1778984461976403 -0.1768088945444283 0.0
0.1553091009703856 -0.1664728229255416 0.0
1.6373896009052207 -0.1200931639930356 0.0
1.5833464738485770 -0.3299926016723864 0.0
0.6523308745491454 -1.1609739207511172 0.0
0.7056409436378940 -1.1445898886711880 0.0
0.1480943038024268 -0.4623232973233804 0.0
0.4159110295309378 -1.1038905960222571 0.0
0.0436743956422341 -0.0281485965118344 0.0
0.0501979050549547 -0.0297705658928932 0.0
0.4474068775791060 -1.0627375077343113 0.0
0.6589082701214514 -0.1315626738074005 0.0
0.6273205767778728 -0.1192901734183515 0.0
0.9760918124294328 -0.4116449581863063 0.0
1.3571535094277904 -0.0330996662288059 0.0
0.1566095587322144 -0.6405598138000187 0.0
1.3054170042136408 -0.0618165669481041 0.0
0.9350468287529646 -0.3872674341903677 0.0
0.5083704479858521 -0.0323213961787860 0.0
0.5284625861615316 -0.0355539179007916 0.0
0.8934249939989977 -0.0206062351360852 0.0
1.5252917194657272 -0.3556854528348040 0.0
1.4455737298343521 -0.4077470869263517 0.0
0.5746195277847640 -0.9932323180318591 0.0
1.6000376847504321 -0.0531203540113048 0.0
1.5898874242729057 -0.0446845045623830 0.0
0.2417417828511289 -0.3134021966932687 0.0
0.2101658245306729 -0.2976122119640172 0.0
0.7795611903223257 -0.1433012822751712 0.0
0.8006878503188498 -0.1598702836215685 0.0
1.5570817330066244 -0.0752564679624993 0.0
0.5656167894654964 -0.0608589006442601 0.0
0.6366978349099730 -0.0781076355749454 0.0
0.6591735810235381 -0.0810780378856972 0.0
1.2611362328502600 0.0571399760578287 0.0
1.2108878950674118 0.0465458395580311 0.0
0.6398467200799820 0.0335096452776480 0.0
0.6408501057068641 0.0314096495822480 0.0
1.4559768062207239 -0.0543982563785121 0.0
0.3204482134613312 -0.0545986540970514 0.0
0.3356028802365555 -0.0579728290950670 0.0
0.2594840804565103 -0.1164646915379726 0.0
0.2794342098812031 -0.1170850837220922 0.0
0.7316742963017497 0.0591340784504843 0.0
0.7333973340570953 0.1060470160014594 0.0
0.0287644621323333 -0.3893253859883848 0.0
1.3137831577057297 -0.7239105797830958 0.0
1.3393628466821068 -0.7581958299308754 0.0
0.6682830407844554 -0.6299711827713719 0.0
0.7542048145032517 -0.5612708380263394 0.0
1.4000690558565907 -0.4218710611826075 0.0
0.6064695312955859 0.0252100526631954 0.0
0.6316746110128570 -0.0188116984694704 0.0
0.5374030421559939 -0.1087433140471970 0.0
0.5399506966519021 -0.1065166001789139 0.0
0.6646795853555761 -1.1982682102458115 0.0
0.1041561471733699 -0.0244880065329969 0.0
0.0993533633212109 -0.0254650782699667 0.0
0.5857906626713901 -0.7693450290993126 0.0
0.6719594787317216 -0.0975955009192876 0.0
0.6707189132105582 -0.1054819397205405 0.0
1.3099975024599424 -0.1370429803239988 0.0
1.3150527721893410 -0.1137010990288048 0.0
0.4840651281591262 -0.3171407151538480 0.0
0.4272754125129856 -0.3198260262066888 0.0
-0.0083473863437449 -0.1847435366825030 0.0
1.3734287071579425 -0.1568304537783625 0.0
0.6171647456792221 -0.8426444187669297 0.0
0.1231541660321145 -0.4605592332082500 0.0
0.4352316045995125 -0.7084907407652996 0.0
0.9892452869153515 -0.9960452390240849 0.0
0.8898063830930129 -1.1606488705636251 0.0
1.4960432015071385 -0.0638413355199933 0.0
1.4917539988170627 -0.0952282804237795 0.0
0.6414533647223830 -1.2210979695651938 0.0
1.0351039960490103 -0.2623355226944465 0.0
0.9892045645968764 -0.2141280298147448 0.0
0.5285258537242813 -0.1574107055171822 0.0
0.5139318370895478 -0.1641400368161597 0.0
1.5557809611317939 -0.1076125867795255 0.0
0.9647425771935202 -1.0731862894730595 0.0
0.4084698307544770 -1.0662594960978387 0.0
1.2107185369204612 -0.1678151060033864 0.0
1.5664685838960657 -0.0905546662523931 0.0
1.5759037618804939 -0.0952779536450663 0.0
1.2764358255509793 -0.1676334698033518 0.0
0.1100898825273666 -0.0095829867119655 0.0
0.1176615702102429 -0.0077708782891641 0.0
0.4226279520110321 0.0668462768998462 0.0
1.3590989381411356 -0.1362311095341316 0.0
1.3239060093970947 0.0286059386266619 0.0
0.4315007094686374 -0.8770636215105506 0.0
0.1342817096152233 -0.2461673246919188 0.0
0.1105551372149409 -0.2173577017171515 0.0
0.1796201074727151 -0.0851007729108283 0.0
0.1610067495637850 -0.0827067557620300 0.0
0.3772601268255331 -0.6526539852996233 0.0
-0.0037053079913500 -0.1340893518998173 0.0
0.8810773459783543 -0.8277004522057537 0.0
0.5212893314701520 0.0366240659556576 0.0
0.5044318894699921 0.0190989318529408 0.0
1.4810042784630721 -0.0476547197744421 0.0
1.4811797958275601 -0.0592978281724388 0.0
0.9333284716157029 -1.0814497957970290 0.0
1.5865378858380759 -0.1731985351288715 0.0
0.4289132833262367 -0.0485404737556646 0.0
0.0340690106707336 -0.0464445536285854 0.0
0.0251081290535307 -0.0412125073064317 0.0
0.3678554580512791 -0.8130356214913612 0.0
0.0259461624393943 -0.1281324043914146 0.0
0.7046513320972990 -0.8807081528648151 0.0
1.4409681096481628 -0.1395409156007845 0.0
0.6483834320096379 -0.3987945985338445 0.0
0.6099006979387338 -0.4210820816619150 0.0
0.6170613770697935 -1.1436494551348952 0.0
0.6699635755463585 0.0783513727565865 0.0
0.6670378743838202 0.0809535996840591 0.0
0.7680305484300339 -1.1052214829397198 0.0
0.1220690042823635 -0.6505976830187341 0.0
0.1066733110025308 -0.5126190872123503 0.0
0.0034512457095433 -0.1286555414162357 0.0
0.8421722230130286 0.0649067633217902 0.0
0.8049202370145143 0.0967545722253952 0.0
0.8329723924832304 -0.0507879350716743 0.0
0.8044199381460315 -0.0672053943269568 0.0
0.3114274279998884 -0.8931347769336393 0.0
0.6608924640401000 -0.1579331914136227 0.0
0.7532805825883395 -0.9626435811831040 0.0
1.3416457191417384 -0.7786158409908297 0.0
0.5406173202145232 0.0834461634075561 0.0
1.4804867123388032 -0.0114749720598049 0.0
1.4841275118994277 -0.0075631354981511 0.0
1.0440487669037102 -1.0403636278261457 0.0
0.7177461104821417 -1.1247503487609964 0.0
1.3318891071583594 -0.1660199523701043 0.0
0.6972870682404657 -1.1723373743025389 0.0
0.0658857722566645 -0.4339141704678698 0.0
1.1906072776179855 -0.0641483304589097 0.0
0.3746639399967820 -0.9766389945936809 0.0
1.6430016272234969 -0.0949268279726227 0.0
0.4105472584222917 -0.0050943478708256 0.0
1.5808881054671846 -0.0860810748541063 0.0
1.5502451921629994 -0.0993550626303898 0.0
0.0017034875697774 0.0004840434034720 0.0
0.0053237796109076 0.0011599514249822 0.0
0.5349265416134116 0.0420835570552130 0.0
0.3505622308923539 -0.0491168585431440 0.0
0.0018115630818471 -0.0058331822019330 0.0
0.0043118235412518 -0.0058077422992809 0.0
0.5555036430017525 -0.0344892042466102 0.0
0.6223645110151431 -0.8485421142190478 0.0
0.5590381041848086 -0.0341118208816475 0.0
0.5530486960691652 -0.0270411993886233 0.0
0.7011782760646882 -0.2989663636638618 0.0
0.7431399884203348 -0.2920054236012408 0.0
0.6212607452018717 -0.7297752495131087 0.0
0.3261445159282303 -0.3951248110417165 0.0
0.3694567590526290 -0.4237597150743539 0.0
0.0131228713724161 0.0003061128254762 0.0
0.0072676210265797 -0.0005275863684524 0.0
1.3161056518735510 -0.4880026077082975 0.0
1.3175051359204075 -0.6464378665177418 0.0
0.9138371468203735 -0.5882892498024513 0.0
0.7730670582447844 -0.4541712139091224 0.0
