# vtk DataFile Version 3.0
LucasCarvalhoTCC Results
ASCII

DATASET POLYDATA

POINTS 380 float
0.0 2.0 0.0
2.0 2.0 0.0
3.0 2.0 0.0
3.0 1.0 0.0
5.0 1.0 0.0
5.0 0.0 0.0
3.0 0.0 0.0
2.0 0.0 0.0
2.0 1.0 0.0
0.0 1.0 0.0
0.2643114543905713 2.0 0.0
0.5169795502969444 2.0 0.0
0.7585171880292413 2.0 0.0
0.9894145836600268 2.0 0.0
1.210140497826619 2.0 0.0
1.421143008568911 2.0 0.0
1.622850459538253 2.0 0.0
1.815672303789548 2.0 0.0
2.188552664328277 2.0 0.0
2.359329284173903 2.0 0.0
2.514005696104645 2.0 0.0
2.654099788331341 2.0 0.0
2.780986322989182 2.0 0.0
2.895910470953052 2.0 0.0
3.0 1.9 0.0
3.0 1.8 0.0
3.0 1.7 0.0
3.0 1.6 0.0
3.0 1.5 0.0
3.0 1.4 0.0
3.0 1.3 0.0
3.0 1.2 0.0
3.0 1.1 0.0
3.105031513416626 1.0 0.0
3.221094637894669 1.0 0.0
3.349348047908936 1.0 0.0
3.491072094154001 1.0 0.0
3.647681638607018 1.0 0.0
3.820740106959136 1.0 0.0
4.011975186625977 1.0 0.0
4.223295996958671 1.0 0.0
4.456812096249916 1.0 0.0
4.714854728122151 1.0 0.0
5.0 0.7500000000000003 0.0
5.0 0.5000000000000012 0.0
5.0 0.2500000000000011 0.0
4.735688545609428 0.0 0.0
4.483020449703056 0.0 0.0
4.241482811970759 0.0 0.0
4.010585416339973 0.0 0.0
3.789859502173381 0.0 0.0
3.578856991431089 0.0 0.0
3.377149540461747 0.0 0.0
3.184327696210452 0.0 0.0
2.811447335671723 0.0 0.0
2.640670715826097 0.0 0.0
2.485994303895355 0.0 0.0
2.345900211668659 0.0 0.0
2.219013677010818 0.0 0.0
2.104089529046948 0.0 0.0
2.0 0.1 0.0
2.0 0.2 0.0
2.0 0.3 0.0
2.0 0.4 0.0
2.0 0.5 0.0
2.0 0.6 0.0
2.0 0.7 0.0
2.0 0.8 0.0
2.0 0.9 0.0
1.894968486583374 1.0 0.0
1.77890536210533 1.0 0.0
1.650651952091063 1.0 0.0
1.508927905845999 1.0 0.0
1.352318361392982 1.0 0.0
1.179259893040864 1.0 0.0
0.9880248133740233 1.0 0.0
0.7767040030413299 1.0 0.0
0.5431879037500846 1.0 0.0
0.2851452718778493 1.0 0.0
0.0 1.25 0.0
0.0 1.499999999999999 0.0
0.0 1.749999999999999 0.0
2.426045913985508 1.348290599604586 0.0
2.562221387987337 0.6558377602558874 0.0
1.966703786708101 1.492474555319359 0.0
3.033486484223225 0.4973568340887861 0.0
2.371610747520728 0.97814425147097 0.0
2.648098402859118 1.648016516253387 0.0
2.351901597140882 0.3519834837466129 0.0
2.694321138879857 1.061432730999581 0.0
1.441644339445862 1.496646809257773 0.0
3.554831642064292 0.501744031268764 0.0
2.720742750697982 1.350625068836981 0.0
2.282037541072919 0.639419348257894 0.0
2.813390610951134 0.7911761792959446 0.0
2.310700631729327 1.679155452525512 0.0
2.688751528716965 0.3206838402855661 0.0
2.211165393176843 1.213708510063781 0.0
0.9449004170027906 1.496357611130017 0.0
4.05509958299721 0.5036423888699835 0.0
3.025501657200047 0.7528388163714679 0.0
1.714778657098197 1.300039655550584 0.0
1.958264922640818 1.245975101752485 0.0
2.206386339371814 0.8500000000000001 0.0
3.336706349465057 0.704398544338507 0.0
4.529565928894533 0.555233644424822 0.0
0.4704340711054673 1.444766355575178 0.0
2.186983355180128 1.461437746541105 0.0
2.553715879020142 0.8859594914241276 0.0
2.782212276375736 0.5474565156445963 0.0
2.500206140967324 1.148517546040804 0.0
2.803373162317882 1.783880361314082 0.0
2.196626837682118 0.2161196386859174 0.0
1.735623536927746 1.664129737658362 0.0
3.268802735993943 0.3358439745752063 0.0
2.799454045372581 1.51553500056848 0.0
2.18762015375897 0.4992029885790829 0.0
2.813478812948685 1.18678600527921 0.0
2.400994471757771 0.7612313552289275 0.0
2.405444563947088 0.5311203927463914 0.0
2.583195945356847 1.473216966241769 0.0
3.734210872783077 0.7260959952797862 0.0
1.256500988572085 1.265010492624376 0.0
2.938353069321001 0.2909212553641365 0.0
2.061245308362322 1.709221243241415 0.0
2.182240881432738 1.001025052084926 0.0
2.830214026212788 0.9796244234047695 0.0
2.49023894829247 1.787687811117195 0.0
2.50976105170753 0.2123121888828049 0.0
1.194806886820808 1.686899295332255 0.0
3.805193113179192 0.3131007046677451 0.0
2.655039231860651 1.208917360245127 0.0
1.493530449555064 1.231198576616718 0.0
2.345622594939228 1.152685186835846 0.0
2.41380980106708 1.521513100394759 0.0
2.58979513084283 0.4863225267637531 0.0
2.135472648094309 0.7246460081196311 0.0
2.912574128751924 0.660128736186259 0.0
2.866043013605144 1.353074765380587 0.0
0.6928324624395237 1.69170809873467 0.0
4.307167537560476 0.3082919012653306 0.0
2.071506740582853 1.128535871978767 0.0
0.6831902494895832 1.302725441792086 0.0
4.316809750510417 0.6972745582079137 0.0
2.85534466702333 1.667491236848871 0.0
2.141886244104996 0.336139391754002 0.0
1.447743165823209 1.773242752731258 0.0
3.554386585610856 0.224002072703283 0.0
2.96485662756902 0.8593908564801968 0.0
3.240425509636175 0.8099760775594669 0.0
2.088410584923666 1.339747073830609 0.0
3.277530767974837 0.4939020807639749 0.0
3.534313505233912 0.7935179117986669 0.0
2.546683861402325 1.011736398479819 0.0
2.664793655038503 0.758149595673951 0.0
2.7009922066801 0.9086021996324817 0.0
1.844652141496971 1.153158997353228 0.0
2.575910747861113 1.316876286520138 0.0
3.994328863599566 0.7454319923658932 0.0
1.005671136400434 1.254568007634107 0.0
1.722192091537185 1.482888323667831 0.0
2.644751416415203 1.850904811198953 0.0
2.355248583584797 0.1490951888010467 0.0
2.31560379269905 1.25706851182614 0.0
2.129697972466254 0.5864366202645266 0.0
2.417220568140766 0.6397160301847872 0.0
2.867945749403976 1.069821281672812 0.0
3.182303046124178 0.6739667261124369 0.0
4.702774994215813 0.2953677284017739 0.0
0.2972250057841874 1.704632271598226 0.0
2.90043748182062 0.4316738443013928 0.0
2.486081387366873 0.3514585853722887 0.0
2.513918612633127 1.648541414627711 0.0
2.086778258621772 1.563111332603502 0.0
4.025359850459486 0.2638518716814435 0.0
0.9746401495405139 1.736148128318556 0.0
3.116389458098145 0.2933651166122753 0.0
1.885410353788165 1.707062521230272 0.0
2.327134732627959 1.833634230002939 0.0
2.672865267372041 0.1663657699970617 0.0
1.675899428547673 1.15999616666306 0.0
1.858973331615206 1.373382723203102 0.0
2.860266039499884 1.862282581689995 0.0
2.139733960500116 0.1377174183100045 0.0
1.257473476073173 1.479081588926576 0.0
3.731624273377778 0.5208146070195914 0.0
2.115038607594509 0.9238947313642476 0.0
0.2734661728051435 1.270630989444945 0.0
4.726533827194856 0.7293690105550548 0.0
2.699965708650878 1.465007479364728 0.0
2.298365077320068 0.5341069340550768 0.0
2.510583000486659 0.7602856732279889 0.0
3.370667741214912 0.8392397884376295 0.0
3.067541604254986 0.8806352314757129 0.0
2.90073732483139 1.443475210354718 0.0
2.264071206758208 0.9501943312745662 0.0
2.278663096491763 0.7489636980394857 0.0
1.952511813454414 1.110576661474517 0.0
2.744352083917141 0.687787375233183 0.0
1.566252941493004 1.383661493752942 0.0
2.437660520624072 0.8703573012735125 0.0
2.904826075218911 1.261819176983655 0.0
2.305967018083784 1.391390767447104 0.0
2.105729326736999 0.8145314366030645 0.0
2.428967188976762 1.236966721617647 0.0
3.060475488407204 0.1442825789852263 0.0
1.934979199332455 1.852811714602595 0.0
2.095475260770118 0.4348597444661615 0.0
2.914777085426361 1.759093454264707 0.0
2.084827330449114 0.2414252069642749 0.0
2.207128288422204 1.315477221019454 0.0
2.658751426439581 0.5773232450959589 0.0
2.612380011409894 1.114144853433198 0.0
2.897371573983894 1.569769587751228 0.0
0.5001010519014215 1.226918930408543 0.0
4.499898948098578 0.7730810695914568 0.0
2.753086810589338 1.690362801865437 0.0
2.246793053318422 0.3097947118702842 0.0
3.391580469276819 0.5673489147038103 0.0
3.035026488699165 0.6179797538177514 0.0
2.449819864663089 1.055109427275025 0.0
2.27653308928065 1.054384468582349 0.0
2.794675693196835 1.418106589018447 0.0
2.778866980525137 1.083577784614141 0.0
2.244522876020972 0.1116738824400324 0.0
2.755477123979027 1.888326117559968 0.0
2.323887028942199 0.8604475039748537 0.0
2.204900210979926 1.747483509451062 0.0
2.794853185869193 0.2526222191943996 0.0
2.320767315286541 1.530441598510029 0.0
1.550828143561484 1.606851581022188 0.0
2.796593663741882 1.288013595743853 0.0
3.436143660897262 0.3940652474171653 0.0
2.682379445750112 0.4493639922429763 0.0
3.242313228541417 0.154845696987206 0.0
1.75965289115187 1.844031320058407 0.0
1.3642341383496 1.159631408929946 0.0
1.980047380836635 1.36362624976796 0.0
2.070303834520089 1.451946835577872 0.0
2.55866460451515 1.229901920133861 0.0
4.26844523535139 0.499131154814159 0.0
0.7315547646486098 1.500868845185841 0.0
2.716116351489881 1.570657861970705 0.0
2.283245236086922 0.4299499540566049 0.0
4.50573905238033 0.204273435313806 0.0
0.4942609476196695 1.795726564686194 0.0
3.605070352001925 0.644396355247622 0.0
3.171946621948212 0.9019117497969773 0.0
3.40309695214227 0.1789624633199048 0.0
1.59690304785773 1.821037536680094 0.0
4.776800700354217 0.5074282293075529 0.0
0.2231992996457826 1.492571770692447 0.0
1.293020597407515 1.839015256431498 0.0
3.706979402592485 0.1609847435685022 0.0
1.398281395597716 1.351857389185529 0.0
2.880181082677912 0.1378504756446906 0.0
2.119200639021148 1.861833157788504 0.0
2.408646939494887 0.2452196658480275 0.0
2.591353060505113 1.754780334151973 0.0
1.146570081566377 1.160946826906423 0.0
3.853429918433624 0.8390531730935771 0.0
2.920846657438631 1.149071660619678 0.0
2.101132283911678 1.226382957654413 0.0
2.903672483971366 0.7774662795474147 0.0
2.516386521935266 0.571665255016536 0.0
2.475412447847437 1.444413760085193 0.0
2.903041575637174 0.5510905120278109 0.0
3.666476299189054 0.8553176740217776 0.0
1.558137053653031 1.119389262041809 0.0
3.867595456948903 0.1475874639835382 0.0
1.132404543051097 1.852412536016462 0.0
2.635017655944937 0.9730281566682446 0.0
2.436667490139274 1.901171080200935 0.0
2.563332509860726 0.09882891979906516 0.0
2.091598337090247 1.040423151014485 0.0
0.8316881289508771 1.172977685150089 0.0
4.168311871049123 0.827022314849911 0.0
3.648565743761548 0.3681286963687066 0.0
1.355037313653319 1.636865536133179 0.0
2.58412781071005 1.576586299624529 0.0
2.41587218928995 0.4234137003754711 0.0
2.083716468691946 0.6634832154935376 0.0
1.843942294678346 1.256771801786488 0.0
2.924298316058657 0.9584506603983015 0.0
[...]
POINT_DATA 380

VECTORS Velocity float
0.0000000000000000 0.0000000000000000 0.0
0.0000000000000000 0.0000000000000000 0.0
0.0000000000000000 0.0000000000000000 0.0
0.0000000000000000 0.0000000000000000 0.0
0.0000000000000000 0.0000000000000000 0.0
0.9186850690237726 -0.1330574979264370 0.0
0.0000000000000000 0.0000000000000000 0.0
0.0000000000000000 0.0000000000000000 0.0
0.0000000000000000 0.0000000000000000 0.0
0.0000000000000000 0.0000000000000000 0.0
0.0000000000000000 0.0000000000000000 0.0
0.0000000000000000 0.0000000000000000 0.0
0.0000000000000000 0.0000000000000000 0.0
0.0000000000000000 0.0000000000000000 0.0
0.0000000000000000 0.0000000000000000 0.0
0.0000000000000000 0.0000000000000000 0.0
0.0000000000000000 0.0000000000000000 0.0
0.0000000000000000 0.0000000000000000 0.0
0.0000000000000000 0.0000000000000000 0.0
0.0000000000000000 0.0000000000000000 0.0
0.0000000000000000 0.0000000000000000 0.0
0.0000000000000000 0.0000000000000000 0.0
0.0000000000000000 0.0000000000000000 0.0
0.0000000000000000 0.0000000000000000 0.0
0.0000000000000000 0.0000000000000000 0.0
0.0000000000000000 0.0000000000000000 0.0
0.0000000000000000 0.0000000000000000 0.0
0.0000000000000000 0.0000000000000000 0.0
0.0000000000000000 0.0000000000000000 0.0
0.0000000000000000 0.0000000000000000 0.0
0.0000000000000000 0.0000000000000000 0.0
0.0000000000000000 0.0000000000000000 0.0
0.0000000000000000 0.0000000000000000 0.0
0.0000000000000000 0.0000000000000000 0.0
0.0000000000000000 0.0000000000000000 0.0
0.0000000000000000 0.0000000000000000 0.0
0.0000000000000000 0.0000000000000000 0.0
0.0000000000000000 0.0000000000000000 0.0
0.0000000000000000 0.0000000000000000 0.0
0.0000000000000000 0.0000000000000000 0.0
0.0000000000000000 0.0000000000000000 0.0
0.0000000000000000 0.0000000000000000 0.0
0.0000000000000000 0.0000000000000000 0.0
1.1551777851018503 0.3642284455580462 0.0
0.7957331321942853 0.0634523537268997 0.0
1.1395837825607380 -0.2964883058347428 0.0
0.0000000000000000 0.0000000000000000 0.0
0.0000000000000000 0.0000000000000000 0.0
0.0000000000000000 0.0000000000000000 0.0
0.0000000000000000 0.0000000000000000 0.0
0.0000000000000000 0.0000000000000000 0.0
0.0000000000000000 0.0000000000000000 0.0
0.0000000000000000 0.0000000000000000 0.0
0.0000000000000000 0.0000000000000000 0.0
0.0000000000000000 0.0000000000000000 0.0
0.0000000000000000 0.0000000000000000 0.0
0.0000000000000000 0.0000000000000000 0.0
0.0000000000000000 0.0000000000000000 0.0
0.0000000000000000 0.0000000000000000 0.0
0.0000000000000000 0.0000000000000000 0.0
0.0000000000000000 0.0000000000000000 0.0
0.0000000000000000 0.0000000000000000 0.0
0.0000000000000000 0.0000000000000000 0.0
0.0000000000000000 0.0000000000000000 0.0
0.0000000000000000 0.0000000000000000 0.0
0.0000000000000000 0.0000000000000000 0.0
0.0000000000000000 0.0000000000000000 0.0
0.0000000000000000 0.0000000000000000 0.0
0.0000000000000000 0.0000000000000000 0.0
0.0000000000000000 0.0000000000000000 0.0
0.0000000000000000 0.0000000000000000 0.0
0.0000000000000000 0.0000000000000000 0.0
0.0000000000000000 0.0000000000000000 0.0
0.0000000000000000 0.0000000000000000 0.0
0.0000000000000000 0.0000000000000000 0.0
0.0000000000000000 0.0000000000000000 0.0
0.0000000000000000 0.0000000000000000 0.0
0.0000000000000000 0.0000000000000000 0.0
0.0000000000000000 0.0000000000000000 0.0
1.0000000000000000 0.0000000000000000 0.0
1.0000000000000000 0.0000000000000000 0.0
1.0000000000000000 0.0000000000000000 0.0
0.9310708019531669 -0.8484189401361644 0.0
0.8142523319441278 -0.8756918977448410 0.0
1.5198247729546936 -0.2541864166795211 0.0
1.4619513882596131 -0.2505320073090562 0.0
0.5948659470116310 -1.2061430930510830 0.0
0.2559545577768510 -0.2066677249952184 0.0
0.2146095377246148 -0.1930162839300124 0.0
0.5792065574917840 -1.2246193908436231 0.0
1.5745051931497351 -0.0759238813414317 0.0
1.6112542248530781 -0.1202892684872191 0.0
0.2721842943303022 -0.6849658902190665 0.0
0.2505633819765824 -0.5935778012711198 0.0
1.1695501686892591 -0.9880216807037119 0.0
0.7034877079896233 -0.2094453247533832 0.0
0.6577460723855894 -0.1964591649245707 0.0
1.1626257245567375 -0.8985237359091790 0.0
1.6001602737646532 -0.0197203364623686 0.0
1.5975335583042696 -0.0092589952113077 0.0
1.4941615741150744 -0.3456793120458633 0.0
1.4993039500465115 -0.0563784110146759 0.0
1.4329843403167879 -0.3054591902455144 0.0
0.2596079305414820 -0.8068425206137494 0.0
1.5181526103670875 -0.0668770037582154 0.0
1.5836152324896466 0.0097580082868300 0.0
1.5334863652453434 0.0359718758356336 0.0
1.2949034426242949 -0.5021181652731157 0.0
0.7061949253675571 -1.2230165826258124 0.0
1.1921948860562688 -0.4622453189576521 0.0
0.6941711618381784 -1.2330653197624122 0.0
0.0473665555464412 -0.0637310559178807 0.0
0.0385438729669635 -0.0533959293238891 0.0
1.1918646351310900 -0.0805859996462170 0.0
1.1131863446335317 -0.0923464708116163 0.0
0.1027392635019131 -0.3094578480903090 0.0
0.0728522458530545 -0.2453718934890463 0.0
0.1743659122923564 -0.7271118264868881 0.0
0.4993439445120024 -0.9785534106175554 0.0
0.4491960743684726 -0.5610369478509030 0.0
0.5239315653307378 -0.5740464162269120 0.0
1.3931625039354216 -0.0127226877801781 0.0
1.3077500751125763 -0.0808560732719063 0.0
0.8071264852974138 -0.1298497591314187 0.0
0.8794916581410885 -0.1318840410236917 0.0
0.5537606902359052 -0.9659682822124751 0.0
0.6252983958438847 -1.0773525062162037 0.0
0.2908517779678583 -0.0368117753593517 0.0
0.2656675311381232 -0.0411089422104040 0.0
1.2770897379498456 0.0116870263924453 0.0
1.2777010806649163 0.0074161616064662 0.0
0.4694598207768461 -1.0637157826198471 0.0
1.2567849244287803 0.0021379218391015 0.0
0.8891419778364867 -1.1065800659957812 0.0
0.7869101779740890 -0.4949793768882716 0.0
0.7941674386498678 -0.5372518569673166 0.0
0.0319419917261213 -0.3398179463782672 0.0
1.5125377976314220 -0.5412790093412455 0.0
0.0638152522876010 -0.3705022778844402 0.0
1.3446605158821949 0.0064266702609133 0.0
1.3451308639154762 0.0149062294024628 0.0
1.0889113872016292 -0.7265033238089462 0.0
1.3761533677703564 -0.0384268542458492 0.0
1.3734548575613492 -0.0565222270952646 0.0
0.0397119290570966 -0.1076238486278733 0.0
0.0344153480929325 -0.0887680267059284 0.0
0.7915159642460887 -0.0085293394816444 0.0
0.7740206351232960 -0.0275136021173719 0.0
1.2357284957086661 -0.5552710584398006 0.0
1.2450227976254011 -0.0996067763723049 0.0
1.4535491623396823 -0.5515468323549323 0.0
1.5356081608984742 -0.0925312138363654 0.0
1.2097727121464688 -0.0650334901363638 0.0
0.6724867554682890 -1.2888958800712826 0.0
0.9579164906902533 -0.9888131575123944 0.0
0.8149077566080384 -1.2489356891415582 0.0
1.0658304616267991 -0.0550448220542401 0.0
0.6003267243870027 -0.9211995898042684 0.0
1.0658882973328427 -0.0518076816287057 0.0
1.0678422452406136 -0.0527586456961633 0.0
1.5802740784588634 -0.0644789312434121 0.0
0.0868583224802320 -0.0376996484040737 0.0
0.0753914919289067 -0.0341885211853548 0.0
1.0576064905840128 -0.9234013142612720 0.0
0.0402157061143111 -0.1796427369382494 0.0
0.4853285436699792 -0.7537515578958456 0.0
0.2473974255980222 -0.7544049950126912 0.0
1.5674104300742031 -0.1588651847762342 0.0
1.2290586951393083 -0.2188956179888983 0.0
1.2102412149082249 -0.2003258937673923 0.0
1.1919568678137236 -0.2694094404288113 0.0
0.3950267612637534 -0.2290456140911426 0.0
0.4368960057178465 -0.2268427679756905 0.0
1.2767708263367816 -0.2946056524380661 0.0
1.0451095438845013 -0.0267568109309198 0.0
1.0429146441221777 -0.0275819223606174 0.0
0.9368675340332218 -0.1125177051575622 0.0
1.0148302523126922 -0.1168491713660302 0.0
0.2698180766186727 -0.0544466758152654 0.0
0.2559022967036786 -0.0506691970257667 0.0
0.8339486007008851 -0.0178698633207552 0.0
1.5837674661148835 -0.1465685968698341 0.0
0.0069702389802697 -0.0176232574099908 0.0
0.0058388651419935 -0.0141016418335973 0.0
1.5373019719782972 -0.0975675396729797 0.0
1.5699555708084152 -0.1294745556658074 0.0
0.1410043317100455 -0.4738851690852626 0.0
1.0959918967650957 0.2306266959484204 0.0
1.0936273474488463 0.2311055654972384 0.0
0.2694081061465560 -0.5052738792367788 0.0
0.2237266932323611 -0.4268561056733148 0.0
0.6846135928882772 -1.0763474845063288 0.0
0.9326916897687095 -0.0546133806904552 0.0
0.8759676289565965 -0.1733353544968919 0.0
0.0342476935988695 -0.1718832439453147 0.0
0.4721716126720551 -1.0889901738198307 0.0
0.2681129880566963 -0.8163793545398281 0.0
0.7726774898114558 -0.1212905086284646 0.0
1.1687536062091965 -0.8172026355603287 0.0
1.5613513200794189 -0.0475290295221701 0.0
0.5853589962711669 -1.1714768045427140 0.0
0.0317753141632520 -0.3010738467924922 0.0
1.1337311082664459 -0.6897450599706416 0.0
0.0710523514232133 -0.2784689848506915 0.0
0.8279734714393140 -1.0861625686933019 0.0
0.4048799389520110 -0.0213499183899638 0.0
0.4323962589286473 -0.0191240217098449 0.0
0.0325368371165477 -0.0846355128071252 0.0
0.0115352363815393 -0.0297557094565820 0.0
0.0097110595115988 -0.0238308930839403 0.0
1.2982354568565346 -0.7657965369313098 0.0
0.9889849773846050 -0.6756928220065591 0.0
0.6018329170698129 -1.2208600589909555 0.0
0.0218096075578898 -0.1091678224772208 0.0
0.8659799158251041 0.1645794611444193 0.0
0.8386366507485622 0.1312791117619218 0.0
0.1293286519752156 -0.1628828333664631 0.0
0.1080691303648665 -0.1405725143738117 0.0
1.6438131927457205 -0.1224267117492374 0.0
1.6098334201525506 -0.3139661184626432 0.0
0.6832862327265499 -1.2751417186041314 0.0
0.7118646463360708 -1.1293200047411363 0.0
0.1349366150917576 -0.4080632587442473 0.0
0.4233615427611310 -1.0520263786348898 0.0
0.0256966423736145 -0.0226542119959682 0.0
0.0306372754093213 -0.0263961028640550 0.0
0.4610982711980097 -1.0541844170425045 0.0
0.6500246691295948 -0.1406188272810249 0.0
0.6035531627340120 -0.1253613860845404 0.0
1.0053100811261180 -0.4522245295035989 0.0
1.3587100686574891 -0.0287638258664773 0.0
0.1579498646250311 -0.5782983489302160 0.0
1.3011970609365948 -0.0661353338256864 0.0
0.9461448333542125 -0.4280739497250718 0.0
0.5000432721233530 -0.0332932229190617 0.0
0.5291117538974308 -0.0358458805628695 0.0
0.8947913301509958 -0.0191988929079686 0.0
1.5442892934956991 -0.3375820054522768 0.0
1.4803287484168937 -0.4053542539158527 0.0
0.6000722473774941 -1.1012095981707981 0.0
1.6000715956253149 -0.0535703328247549 0.0
1.5899161182793229 -0.0451515000427430 0.0
0.1966377551011633 -0.2961243031335272 0.0
0.1642929139159810 -0.2602041017617814 0.0
0.7800143947832517 -0.1433650493757543 0.0
0.8008395545745913 -0.1598526365545888 0.0
1.5615328470359198 -0.0782939306121119 0.0
0.5603948214558740 -0.0546786907824612 0.0
0.6298235014747499 -0.0793686891258403 0.0
0.6586350697652810 -0.0800077029961644 0.0
1.2611529517801365 0.0575661700633532 0.0
1.2108940899537772 0.0466778644410365 0.0
0.6380564195950491 0.0333264249049675 0.0
0.6380877418312885 0.0299622635254090 0.0
1.4571409330737961 -0.0510036217388551 0.0
0.3092033424597135 -0.0564543441554049 0.0
0.3320209254040547 -0.0610904589357651 0.0
0.2089480468881119 -0.1143259990736966 0.0
0.2348193949005275 -0.1199174135446665 0.0
0.7330126074822441 0.0586035052950073 0.0
0.7342807320938735 0.1056312890561910 0.0
0.0470470327554441 -0.3343245426712089 0.0
1.3138706850080439 -0.6921343935514030 0.0
1.3504171358526125 -0.7183407983840077 0.0
0.6748097457058767 -0.6956700235326851 0.0
0.7836526380341966 -0.6355989992057799 0.0
1.4420032461056347 -0.4211956719731040 0.0
0.6081712788895033 0.0247380108083666 0.0
0.6289256062035745 -0.0152778328709857 0.0
0.5362687181730855 -0.1094252526333815 0.0
0.5386754618938087 -0.1068964725543683 0.0
0.6989502610728435 -1.2920953748917221 0.0
0.0899908084262788 -0.0262665222483999 0.0
0.0827694372972445 -0.0269583348667447 0.0
0.5617216936041566 -0.6938014372847029 0.0
0.6720069904460457 -0.0979538956358771 0.0
0.6704685948149809 -0.1057537385917718 0.0
1.3066142639743170 -0.1417108511020380 0.0
1.3134876687663801 -0.1127443624365918 0.0
0.4458176400894351 -0.3388478477982174 0.0
0.3764513671600823 -0.3296961862075021 0.0
0.0054076570044397 -0.1422877381090041 0.0
1.3648509270514264 -0.1369610703035533 0.0
0.6028438189815216 -0.7598351345419365 0.0
0.1102444147541706 -0.3948409941748182 0.0
0.4344580271817410 -0.7523194902772667 0.0
0.9728042520645310 -0.9372252411012750 0.0
0.9089927461412013 -1.1376760516372377 0.0
1.4974515665353791 -0.0662328534547091 0.0
1.4930239897064355 -0.0971384310251768 0.0
0.6580473817606954 -1.2238104400208263 0.0
1.0538892808492315 -0.2830115962035769 0.0
0.9963580645529918 -0.2318603785692629 0.0
0.4987999160666018 -0.1765937885800994 0.0
0.4711802127890052 -0.1808576870199542 0.0
1.5621480732638005 -0.1093065707238984 0.0
1.0105099924138023 -1.1112085588221317 0.0
0.4218912376037190 -1.0687697852795426 0.0
1.2139885681868132 -0.1674875999015432 0.0
1.5660785896625786 -0.0925805519725138 0.0
1.5756293432029242 -0.0980852999674146 0.0
1.2933695558295273 -0.1692466070894475 0.0
0.0873416502490391 -0.0123841292026734 0.0
0.0975506692171669 -0.0108858958905793 0.0
0.4214722559133877 0.0688216447251504 0.0
1.3634009941228682 -0.1365234202590493 0.0
1.3198912234681786 0.0385887721046495 0.0
0.4452338975242228 -0.9266429992209225 0.0
0.0947319037494752 -0.2152780834250969 0.0
0.0742469700794869 -0.1751662772226783 0.0
0.1338052858747814 -0.0829190581573130 0.0
0.1144768355026386 -0.0738871274860851 0.0
0.3661464891718700 -0.6470765531968596 0.0
0.0116858282065681 -0.1066000689578772 0.0
0.9358182296822954 -0.9101836202164399 0.0
0.5211259253872822 0.0366028017227067 0.0
0.5040318059866067 0.0190532870754997 0.0
1.4812142357618903 -0.0484232442777292 0.0
1.4810646908719780 -0.0599412744719898 0.0
0.9575600355303121 -1.0737450378867583 0.0
1.6070533725164400 -0.1631386286938545 0.0
0.4307267270460921 -0.0488168614146822 0.0
0.0105112187504609 -0.0363582758403820 0.0
0.0068953222394401 -0.0295959812268372 0.0
0.3791245500463754 -0.8092751767231334 0.0
0.0152729290272310 -0.0934705471964489 0.0
0.7420961153449940 -0.9901703352342041 0.0
1.4555198912480403 -0.1362958922962370 0.0
0.6392300012193889 -0.4467178574462139 0.0
0.5855394454671832 -0.4570010334997071 0.0
0.6508780282042484 -1.2598154064078766 0.0
0.6698842386245302 0.0780340134559765 0.0
0.6672701388444655 0.0808046557591288 0.0
0.8126975369310554 -1.2050187925284741 0.0
0.1306880127924514 -0.5669726914377587 0.0
0.1087181662976941 -0.4379406739809367 0.0
0.0100020050268656 -0.1036777471031430 0.0
0.8421313781175677 0.0649330600108716 0.0
0.8047559287382258 0.0969222168170384 0.0
0.8330185129106300 -0.0507520139055583 0.0
0.8045938324192903 -0.0670015603618529 0.0
0.3185539726860083 -0.8734056028763707 0.0
0.6335843993905831 -0.1429469514867421 0.0
0.7990633274777182 -1.0734271876424575 0.0
1.3809614060818391 -0.7745630574450479 0.0
0.5292167830233477 0.0852339110950999 0.0
1.4803585067154819 -0.0122736222112642 0.0
1.4842927763429745 -0.0081689651988914 0.0
1.0388713505309615 -0.9746295355630098 0.0
0.7555938457715838 -1.2241011191328284 0.0
1.3238697908434847 -0.1495649751906115 0.0
0.7261685732268599 -1.2304256340967308 0.0
0.0904930920824815 -0.3747178734654635 0.0
1.1744951381322783 -0.0500467011041448 0.0
0.3748913443371750 -0.8922652315625592 0.0
1.6570312851381470 -0.0890520175188741 0.0
0.4124609874626891 -0.0054326218213684 0.0
1.5813623528304619 -0.0860455340552567 0.0
1.5503912139753298 -0.0992817307411056 0.0
-0.0068322286095836 -0.0013988283508408 0.0
-0.0082786933443763 -0.0019356132537043 0.0
0.5347387144715954 0.0430548503578706 0.0
0.3395496580117320 -0.0412584065546872 0.0
-0.0037655955776436 -0.0053408365981692 0.0
-0.0041972660829275 -0.0065666075662644 0.0
0.5570390911713209 -0.0346619172026171 0.0
0.6473395660612997 -0.9302865452533617 0.0
0.5591483111757050 -0.0341177762570405 0.0
0.5533789351721391 -0.0270360992106334 0.0
0.6760957693635750 -0.3342727170414571 0.0
0.7358293376318725 -0.3324126157359578 0.0
0.6469816173852587 -0.8176949294109798 0.0
0.2831273971673786 -0.3833587147461193 0.0
0.3340229626279880 -0.4361916953336973 0.0
-0.0090118870860493 -0.0037771739645828 0.0
-0.0073450292069722 -0.0028653846130589 0.0
1.2687679143939490 -0.4501419760991768 0.0
1.3688473637092815 -0.6545860472542548 0.0
0.9571895620408155 -0.6548213381105380 0.0
0.7327908488647973 -0.4157124960930841 0.0
