# vtk DataFile Version 3.0
LucasCarvalhoTCC Results
ASCII

DATASET POLYDATA
FIELD FieldData 1
TIME 1 1 double
0.5

POINTS 380 float
0.0 2.0 0.0
2.0 2.0 0.0
3.0 2.0 0.0
3.0 1.0 0.0
5.0 1.0 0.0
5.0 0.0 0.0
3.0 0.0 0.0
2.0 0.0 0.0
2.0 1.0 0.0
0.0 1.0 0.0
0.2643114543905713 2.0 0.0
0.5169795502969444 2.0 0.0
0.7585171880292413 2.0 0.0
0.9894145836600268 2.0 0.0
1.210140497826619 2.0 0.0
1.421143008568911 2.0 0.0
1.622850459538253 2.0 0.0
1.815672303789548 2.0 0.0
2.188552664328277 2.0 0.0
2.359329284173903 2.0 0.0
2.514005696104645 2.0 0.0
2.654099788331341 2.0 0.0
2.780986322989182 2.0 0.0
2.895910470953052 2.0 0.0
3.0 1.9 0.0
3.0 1.8 0.0
3.0 1.7 0.0
3.0 1.6 0.0
3.0 1.5 0.0
3.0 1.4 0.0
3.0 1.3 0.0
3.0 1.2 0.0
3.0 1.1 0.0
3.105031513416626 1.0 0.0
3.221094637894669 1.0 0.0
3.349348047908936 1.0 0.0
3.491072094154001 1.0 0.0
3.647681638607018 1.0 0.0
3.820740106959136 1.0 0.0
4.011975186625977 1.0 0.0
4.223295996958671 1.0 0.0
4.456812096249916 1.0 0.0
4.714854728122151 1.0 0.0
5.0 0.7500000000000003 0.0
5.0 0.5000000000000012 0.0
5.0 0.2500000000000011 0.0
4.735688545609428 0.0 0.0
4.483020449703056 0.0 0.0
4.241482811970759 0.0 0.0
4.010585416339973 0.0 0.0
3.789859502173381 0.0 0.0
3.578856991431089 0.0 0.0
3.377149540461747 0.0 0.0
3.184327696210452 0.0 0.0
2.811447335671723 0.0 0.0
2.640670715826097 0.0 0.0
2.485994303895355 0.0 0.0
2.345900211668659 0.0 0.0
2.219013677010818 0.0 0.0
2.104089529046948 0.0 0.0
2.0 0.1 0.0
2.0 0.2 0.0
2.0 0.3 0.0
2.0 0.4 0.0
2.0 0.5 0.0
2.0 0.6 0.0
2.0 0.7 0.0
2.0 0.8 0.0
2.0 0.9 0.0
1.894968486583374 1.0 0.0
1.77890536210533 1.0 0.0
1.650651952091063 1.0 0.0
1.508927905845999 1.0 0.0
1.352318361392982 1.0 0.0
1.179259893040864 1.0 0.0
0.9880248133740233 1.0 0.0
0.7767040030413299 1.0 0.0
0.5431879037500846 1.0 0.0
0.2851452718778493 1.0 0.0
0.0 1.25 0.0
0.0 1.499999999999999 0.0
0.0 1.749999999999999 0.0
2.426045913985508 1.348290599604586 0.0
2.562221387987337 0.6558377602558874 0.0
1.966703786708101 1.492474555319359 0.0
3.033486484223225 0.4973568340887861 0.0
2.371610747520728 0.97814425147097 0.0
2.648098402859118 1.648016516253387 0.0
2.351901597140882 0.3519834837466129 0.0
2.694321138879857 1.061432730999581 0.0
1.441644339445862 1.496646809257773 0.0
3.554831642064292 0.501744031268764 0.0
2.720742750697982 1.350625068836981 0.0
2.282037541072919 0.639419348257894 0.0
2.813390610951134 0.7911761792959446 0.0
2.310700631729327 1.679155452525512 0.0
2.688751528716965 0.3206838402855661 0.0
2.211165393176843 1.213708510063781 0.0
0.9449004170027906 1.496357611130017 0.0
4.05509958299721 0.5036423888699835 0.0
3.025501657200047 0.7528388163714679 0.0
1.714778657098197 1.300039655550584 0.0
1.958264922640818 1.245975101752485 0.0
2.206386339371814 0.8500000000000001 0.0
3.336706349465057 0.704398544338507 0.0
4.529565928894533 0.555233644424822 0.0
0.4704340711054673 1.444766355575178 0.0
2.186983355180128 1.461437746541105 0.0
2.553715879020142 0.8859594914241276 0.0
2.782212276375736 0.5474565156445963 0.0
2.500206140967324 1.148517546040804 0.0
2.803373162317882 1.783880361314082 0.0
2.196626837682118 0.2161196386859174 0.0
1.735623536927746 1.664129737658362 0.0
3.268802735993943 0.3358439745752063 0.0
2.799454045372581 1.51553500056848 0.0
2.18762015375897 0.4992029885790829 0.0
2.813478812948685 1.18678600527921 0.0
2.400994471757771 0.7612313552289275 0.0
2.405444563947088 0.5311203927463914 0.0
2.583195945356847 1.473216966241769 0.0
3.734210872783077 0.7260959952797862 0.0
1.256500988572085 1.265010492624376 0.0
2.938353069321001 0.2909212553641365 0.0
2.061245308362322 1.709221243241415 0.0
2.182240881432738 1.001025052084926 0.0
2.830214026212788 0.9796244234047695 0.0
2.49023894829247 1.787687811117195 0.0
2.50976105170753 0.2123121888828049 0.0
1.194806886820808 1.686899295332255 0.0
3.805193113179192 0.3131007046677451 0.0
2.655039231860651 1.208917360245127 0.0
1.493530449555064 1.231198576616718 0.0
2.345622594939228 1.152685186835846 0.0
2.41380980106708 1.521513100394759 0.0
2.58979513084283 0.4863225267637531 0.0
2.135472648094309 0.7246460081196311 0.0
2.912574128751924 0.660128736186259 0.0
2.866043013605144 1.353074765380587 0.0
0.6928324624395237 1.69170809873467 0.0
4.307167537560476 0.3082919012653306 0.0
2.071506740582853 1.128535871978767 0.0
0.6831902494895832 1.302725441792086 0.0
4.316809750510417 0.6972745582079137 0.0
2.85534466702333 1.667491236848871 0.0
2.141886244104996 0.336139391754002 0.0
1.447743165823209 1.773242752731258 0.0
3.554386585610856 0.224002072703283 0.0
2.96485662756902 0.8593908564801968 0.0
3.240425509636175 0.8099760775594669 0.0
2.088410584923666 1.339747073830609 0.0
3.277530767974837 0.4939020807639749 0.0
3.534313505233912 0.7935179117986669 0.0
2.546683861402325 1.011736398479819 0.0
2.664793655038503 0.758149595673951 0.0
2.7009922066801 0.9086021996324817 0.0
1.844652141496971 1.153158997353228 0.0
2.575910747861113 1.316876286520138 0.0
3.994328863599566 0.7454319923658932 0.0
1.005671136400434 1.254568007634107 0.0
1.722192091537185 1.482888323667831 0.0
2.644751416415203 1.850904811198953 0.0
2.355248583584797 0.1490951888010467 0.0
2.31560379269905 1.25706851182614 0.0
2.129697972466254 0.5864366202645266 0.0
2.417220568140766 0.6397160301847872 0.0
2.867945749403976 1.069821281672812 0.0
3.182303046124178 0.6739667261124369 0.0
4.702774994215813 0.2953677284017739 0.0
0.2972250057841874 1.704632271598226 0.0
2.90043748182062 0.4316738443013928 0.0
2.486081387366873 0.3514585853722887 0.0
2.513918612633127 1.648541414627711 0.0
2.086778258621772 1.563111332603502 0.0
4.025359850459486 0.2638518716814435 0.0
0.9746401495405139 1.736148128318556 0.0
3.116389458098145 0.2933651166122753 0.0
1.885410353788165 1.707062521230272 0.0
2.327134732627959 1.833634230002939 0.0
2.672865267372041 0.1663657699970617 0.0
1.675899428547673 1.15999616666306 0.0
1.858973331615206 1.373382723203102 0.0
2.860266039499884 1.862282581689995 0.0
2.139733960500116 0.1377174183100045 0.0
1.257473476073173 1.479081588926576 0.0
3.731624273377778 0.5208146070195914 0.0
2.115038607594509 0.9238947313642476 0.0
0.2734661728051435 1.270630989444945 0.0
4.726533827194856 0.7293690105550548 0.0
2.699965708650878 1.465007479364728 0.0
2.298365077320068 0.5341069340550768 0.0
2.510583000486659 0.7602856732279889 0.0
3.370667741214912 0.8392397884376295 0.0
3.067541604254986 0.8806352314757129 0.0
2.90073732483139 1.443475210354718 0.0
2.264071206758208 0.9501943312745662 0.0
2.278663096491763 0.7489636980394857 0.0
1.952511813454414 1.110576661474517 0.0
2.744352083917141 0.687787375233183 0.0
1.566252941493004 1.383661493752942 0.0
2.437660520624072 0.8703573012735125 0.0
2.904826075218911 1.261819176983655 0.0
2.305967018083784 1.391390767447104 0.0
2.105729326736999 0.8145314366030645 0.0
2.428967188976762 1.236966721617647 0.0
3.060475488407204 0.1442825789852263 0.0
1.934979199332455 1.852811714602595 0.0
2.095475260770118 0.4348597444661615 0.0
2.914777085426361 1.759093454264707 0.0
2.084827330449114 0.2414252069642749 0.0
2.207128288422204 1.315477221019454 0.0
2.658751426439581 0.5773232450959589 0.0
2.612380011409894 1.114144853433198 0.0
2.897371573983894 1.569769587751228 0.0
0.5001010519014215 1.226918930408543 0.0
4.499898948098578 0.7730810695914568 0.0
2.753086810589338 1.690362801865437 0.0
2.246793053318422 0.3097947118702842 0.0
3.391580469276819 0.5673489147038103 0.0
3.035026488699165 0.6179797538177514 0.0
2.449819864663089 1.055109427275025 0.0
2.27653308928065 1.054384468582349 0.0
2.794675693196835 1.418106589018447 0.0
2.778866980525137 1.083577784614141 0.0
2.244522876020972 0.1116738824400324 0.0
2.755477123979027 1.888326117559968 0.0
2.323887028942199 0.8604475039748537 0.0
2.204900210979926 1.747483509451062 0.0
2.794853185869193 0.2526222191943996 0.0
2.320767315286541 1.530441598510029 0.0
1.550828143561484 1.606851581022188 0.0
2.796593663741882 1.288013595743853 0.0
3.436143660897262 0.3940652474171653 0.0
2.682379445750112 0.4493639922429763 0.0
3.242313228541417 0.154845696987206 0.0
1.75965289115187 1.844031320058407 0.0
1.3642341383496 1.159631408929946 0.0
1.980047380836635 1.36362624976796 0.0
2.070303834520089 1.451946835577872 0.0
2.55866460451515 1.229901920133861 0.0
4.26844523535139 0.499131154814159 0.0
0.7315547646486098 1.500868845185841 0.0
2.716116351489881 1.570657861970705 0.0
2.283245236086922 0.4299499540566049 0.0
4.50573905238033 0.204273435313806 0.0
0.4942609476196695 1.795726564686194 0.0
3.605070352001925 0.644396355247622 0.0
3.171946621948212 0.9019117497969773 0.0
3.40309695214227 0.1789624633199048 0.0
1.59690304785773 1.821037536680094 0.0
4.776800700354217 0.5074282293075529 0.0
0.2231992996457826 1.492571770692447 0.0
1.293020597407515 1.839015256431498 0.0
3.706979402592485 0.1609847435685022 0.0
1.398281395597716 1.351857389185529 0.0
2.880181082677912 0.1378504756446906 0.0
2.119200639021148 1.861833157788504 0.0
2.408646939494887 0.2452196658480275 0.0
2.591353060505113 1.754780334151973 0.0
1.146570081566377 1.160946826906423 0.0
3.853429918433624 0.8390531730935771 0.0
2.920846657438631 1.149071660619678 0.0
2.101132283911678 1.226382957654413 0.0
2.903672483971366 0.7774662795474147 0.0
2.516386521935266 0.571665255016536 0.0
2.475412447847437 1.444413760085193 0.0
2.903041575637174 0.5510905120278109 0.0
3.666476299189054 0.8553176740217776 0.0
1.558137053653031 1.119389262041809 0.0
3.867595456948903 0.1475874639835382 0.0
1.132404543051097 1.852412536016462 0.0
2.635017655944937 0.9730281566682446 0.0
2.436667490139274 1.901171080200935 0.0
2.563332509860726 0.09882891979906516 0.0
2.091598337090247 1.040423151014485 0.0
0.8316881289508771 1.172977685150089 0.0
4.168311871049123 0.827022314849911 0.0
3.648565743761548 0.3681286963687066 0.0
1.355037313653319 1.636865536133179 0.0
2.58412781071005 1.576586299624529 0.0
2.41587218928995 0.4234137003754711 0.0
2.083716468691946 0.6634832154935376 0.0
1.843942294678346 1.256771801786488 0.0
[...]
POINT_DATA 380

VECTORS Velocity float
0.0000000000000000 0.0000000000000000 0.0
0.0000000000000000 0.0000000000000000 0.0
0.0000000000000000 0.0000000000000000 0.0
0.0000000000000000 0.0000000000000000 0.0
0.0000000000000000 0.0000000000000000 0.0
0.9179022041797505 -0.1264114937481714 0.0
0.0000000000000000 0.0000000000000000 0.0
0.0000000000000000 0.0000000000000000 0.0
0.0000000000000000 0.0000000000000000 0.0
0.0000000000000000 0.0000000000000000 0.0
0.0000000000000000 0.0000000000000000 0.0
0.0000000000000000 0.0000000000000000 0.0
0.0000000000000000 0.0000000000000000 0.0
0.0000000000000000 0.0000000000000000 0.0
0.0000000000000000 0.0000000000000000 0.0
0.0000000000000000 0.0000000000000000 0.0
0.0000000000000000 0.0000000000000000 0.0
0.0000000000000000 0.0000000000000000 0.0
0.0000000000000000 0.0000000000000000 0.0
0.0000000000000000 0.0000000000000000 0.0
0.0000000000000000 0.0000000000000000 0.0
0.0000000000000000 0.0000000000000000 0.0
0.0000000000000000 0.0000000000000000 0.0
0.0000000000000000 0.0000000000000000 0.0
0.0000000000000000 0.0000000000000000 0.0
0.0000000000000000 0.0000000000000000 0.0
0.0000000000000000 0.0000000000000000 0.0
0.0000000000000000 0.0000000000000000 0.0
0.0000000000000000 0.0000000000000000 0.0
0.0000000000000000 0.0000000000000000 0.0
0.0000000000000000 0.0000000000000000 0.0
0.0000000000000000 0.0000000000000000 0.0
0.0000000000000000 0.0000000000000000 0.0
0.0000000000000000 0.0000000000000000 0.0
0.0000000000000000 0.0000000000000000 0.0
0.0000000000000000 0.0000000000000000 0.0
0.0000000000000000 0.0000000000000000 0.0
0.0000000000000000 0.0000000000000000 0.0
0.0000000000000000 0.0000000000000000 0.0
0.0000000000000000 0.0000000000000000 0.0
0.0000000000000000 0.0000000000000000 0.0
0.0000000000000000 0.0000000000000000 0.0
0.0000000000000000 0.0000000000000000 0.0
1.1552310400251324 0.3312644571402338 0.0
0.8088848778792423 0.0266117244350385 0.0
1.1261873059360847 -0.2908985482075460 0.0
0.0000000000000000 0.0000000000000000 0.0
0.0000000000000000 0.0000000000000000 0.0
0.0000000000000000 0.0000000000000000 0.0
0.0000000000000000 0.0000000000000000 0.0
0.0000000000000000 0.0000000000000000 0.0
0.0000000000000000 0.0000000000000000 0.0
0.0000000000000000 0.0000000000000000 0.0
0.0000000000000000 0.0000000000000000 0.0
0.0000000000000000 0.0000000000000000 0.0
0.0000000000000000 0.0000000000000000 0.0
0.0000000000000000 0.0000000000000000 0.0
0.0000000000000000 0.0000000000000000 0.0
0.0000000000000000 0.0000000000000000 0.0
0.0000000000000000 0.0000000000000000 0.0
0.0000000000000000 0.0000000000000000 0.0
0.0000000000000000 0.0000000000000000 0.0
0.0000000000000000 0.0000000000000000 0.0
0.0000000000000000 0.0000000000000000 0.0
0.0000000000000000 0.0000000000000000 0.0
0.0000000000000000 0.0000000000000000 0.0
0.0000000000000000 0.0000000000000000 0.0
0.0000000000000000 0.0000000000000000 0.0
0.0000000000000000 0.0000000000000000 0.0
0.0000000000000000 0.0000000000000000 0.0
0.0000000000000000 0.0000000000000000 0.0
0.0000000000000000 0.0000000000000000 0.0
0.0000000000000000 0.0000000000000000 0.0
0.0000000000000000 0.0000000000000000 0.0
0.0000000000000000 0.0000000000000000 0.0
0.0000000000000000 0.0000000000000000 0.0
0.0000000000000000 0.0000000000000000 0.0
0.0000000000000000 0.0000000000000000 0.0
0.0000000000000000 0.0000000000000000 0.0
1.0000000000000000 0.0000000000000000 0.0
1.0000000000000000 0.0000000000000000 0.0
1.0000000000000000 0.0000000000000000 0.0
0.7010959369454992 -0.5573693539164506 0.0
0.6433671575664396 -0.5723717910157995 0.0
1.1994471313884352 -0.2456516180846957 0.0
1.1499100381083753 -0.2590811764838202 0.0
0.4994970896505978 -0.8804166759792604 0.0
0.4566075128809817 -0.1675673666060304 0.0
0.4287695803533946 -0.1791103009444334 0.0
0.4648809098691012 -0.9270447961774372 0.0
1.4056656036383879 -0.0800427058994380 0.0
1.4101969615024224 -0.0827872365103302 0.0
0.2936887806646211 -0.5217827374398581 0.0
0.2877696441192745 -0.5288303854939123 0.0
0.9726978406363170 -0.8724514885819776 0.0
0.7980979390009407 -0.1651570571725886 0.0
0.7879192489188187 -0.1691159795189820 0.0
0.9691829848147933 -0.7845690058593224 0.0
1.5176046560051315 -0.0083765753740695 0.0
1.5154948751579815 0.0002979215709589 0.0
1.4486812077754576 -0.4294778478186107 0.0
1.3920763086235508 -0.1671934167321669 0.0
1.4513186755838512 -0.3937069410934483 0.0
0.1702448386054321 -0.9884235005713521 0.0
1.4192414453055127 -0.1270941097789602 0.0
1.5266093262547331 0.0138388241113502 0.0
1.4900334914441919 0.0288771308154951 0.0
0.9751444439003093 -0.3909752621029699 0.0
0.5680867748123808 -0.7938664462615667 0.0
0.9111039819804150 -0.3740440601610649 0.0
0.5524709035781995 -0.7833255024053598 0.0
0.3234394185538721 -0.0208453606689261 0.0
0.2904778109707151 -0.0325098042667718 0.0
1.2019526852786495 -0.0566403314171580 0.0
1.1958159005191062 -0.0591786361177380 0.0
0.2281665374255465 -0.2931852900549101 0.0
0.1859211151415684 -0.2866283630799698 0.0
0.0730311425686990 -0.8166831566932240 0.0
0.4361090389166833 -0.6806804162425082 0.0
0.4583404273119243 -0.4051598245441484 0.0
0.4946478548634159 -0.3792100560077361 0.0
1.3542446427457671 -0.0531631341257125 0.0
1.2856305947953992 -0.0999947190494124 0.0
0.9452494980919915 -0.1231341887694371 0.0
0.9645823051757335 -0.1108509068234968 0.0
0.5376373761625660 -1.2654780012098776 0.0
0.5517102402330566 -1.3195112951973460 0.0
0.5256345310293787 -0.0146340652786327 0.0
0.5079629649729752 -0.0210034362826526 0.0
1.2843579502649267 0.0343364410845486 0.0
1.2880042001074437 0.0356801798153928 0.0
0.3833478624646682 -0.7154295587588250 0.0
1.2791371219180008 -0.0355517435282874 0.0
0.7114324866701193 -0.8033304589271899 0.0
0.6738770700489830 -0.3460791706780303 0.0
0.6842574153001106 -0.3713659385865265 0.0
-0.0967186267223305 -0.5616052996465780 0.0
1.2020396463507472 -0.5320176819236194 0.0
0.0682626640340848 -0.4453947168652896 0.0
1.3359372550114701 0.0188743021332048 0.0
1.3386540690889113 0.0232915029871782 0.0
1.3391022003003152 -0.9943158253776958 0.0
1.3699560392612966 -0.0436872882262383 0.0
1.3672506013012773 -0.0520245110535215 0.0
0.2652628742029147 -0.0855149102109188 0.0
0.2328438141672474 -0.1002283745562208 0.0
0.8738226264543391 -0.0096302149368069 0.0
0.8799359171500626 -0.0148836542617872 0.0
1.4704472024288493 -0.7761050345684923 0.0
1.3437731895613241 -0.1513551505843415 0.0
1.1549293174953212 -0.5047113374284385 0.0
1.3277299486197331 -0.0895883387381605 0.0
1.2639635336202302 -0.0808944860027463 0.0
0.5384043903461824 -0.8295358936776530 0.0
0.7435183983619338 -0.6853810548523851 0.0
0.6559659167306775 -0.9372067942653700 0.0
1.3778758537797424 -0.1189889891398802 0.0
0.4940639910731103 -0.5789980203385593 0.0
1.0665778515467197 -0.0422040005646319 0.0
1.0710707600279199 -0.0385001585321597 0.0
1.3505212865643310 -0.0993023942922372 0.0
0.2670674706116323 -0.0376890181268706 0.0
0.2501337068470398 -0.0402639670836909 0.0
0.8109133595955791 -0.6713994509121491 0.0
0.0774030195563583 -0.2710414484976857 0.0
0.4508311776057333 -0.5219434884328319 0.0
0.0775475091407598 -1.1164945667193007 0.0
1.3925942612294371 -0.2385583136058594 0.0
1.1925957382595513 -0.1927164831569187 0.0
1.1868855518577959 -0.1808492608371956 0.0
1.0204353672994904 -0.2634777167254683 0.0
0.5633653589764045 -0.1846097954820919 0.0
0.5859657758001364 -0.1711146656770388 0.0
1.0644334393950146 -0.2589385055917768 0.0
1.0617537984510863 -0.0082462752792044 0.0
1.0572800439585586 -0.0107984339419593 0.0
1.0722579184539247 -0.0836598520061793 0.0
1.0857253291367752 -0.0804114579444201 0.0
0.4260613056088330 -0.0485993276299410 0.0
0.4181911763698873 -0.0497943855956266 0.0
0.9775369413970809 -0.0698176867369838 0.0
1.3053194507749191 -0.2185818538830100 0.0
0.2682049930051386 0.0392167609364391 0.0
0.2364218520736178 0.0293411469041340 0.0
1.4167584472528993 -0.0795815850507994 0.0
1.4292311028256688 -0.0956576497041365 0.0
-0.0417283762679085 -0.8662911798802685 0.0
1.1055375427267400 0.2067021955300628 0.0
1.1115646539885473 0.2041286760592619 0.0
0.3360845512780272 -0.3752356152242226 0.0
0.3115562685728293 -0.3723702851073020 0.0
0.5572595690527467 -0.6953030415781919 0.0
1.0220839011221852 -0.0768022156320161 0.0
1.1042387456199003 -0.2707178737678086 0.0
0.1013133773061648 -0.2149112391819468 0.0
0.4002969981172813 -1.0354248564408846 0.0
0.2364816654492854 -0.7131825852827389 0.0
1.1022146084491198 -0.1646476514602488 0.0
0.8753121672148977 -0.6110427809754304 0.0
1.3944084919961082 -0.0881169168148932 0.0
0.4880465768801184 -0.7854607707955491 0.0
-0.0692798466375733 -0.4245859491526566 0.0
0.8341225876822218 -0.4921153858815548 0.0
-0.0656044006762833 -0.5151641044488914 0.0
0.6393111625564071 -0.7058927303325359 0.0
0.5588548561303843 -0.0179786948953384 0.0
0.5578723820837009 -0.0139594716028338 0.0
0.1584683210367143 -0.1271294575178331 0.0
0.2518272433628342 -0.0004728299418624 0.0
0.2189114231405589 -0.0087787086192383 0.0
1.0049983591763296 -0.6270349423910982 0.0
0.7652350206838481 -0.4767054587456888 0.0
0.4848331652911117 -0.8088093246324475 0.0
0.1568751291571882 -0.1203489150874144 0.0
0.8986930095151349 0.1409310950559391 0.0
0.8801371740219317 0.1143785416241891 0.0
0.3694616793337107 -0.1212454107601911 0.0
0.3409986824178929 -0.1344357650247145 0.0
1.3982151668180673 -0.1024136186307399 0.0
1.2786161284956770 -0.3343634440048124 0.0
0.5562856633455884 -0.8388246704035001 0.0
0.6290412173840193 -1.0002355774586540 0.0
0.2065108683286985 -0.3834941508748643 0.0
0.3240998050404653 -1.0483295135453818 0.0
0.1827219702504634 -0.0284821500551381 0.0
0.2013120830304209 -0.0262274733954119 0.0
0.3970346488789160 -0.8505404574782067 0.0
0.8224049024506239 -0.1302874989455611 0.0
0.8087464239001340 -0.1349304696086620 0.0
0.8247699069074760 -0.3262015733611434 0.0
1.3077803703793105 -0.0350864377136552 0.0
0.1571227292179388 -0.5734549726400654 0.0
1.2955843767852318 -0.0355446916719798 0.0
0.8128455021823559 -0.3252010354076397 0.0
0.6323349619201866 -0.0247941350909291 0.0
0.6282818342738334 -0.0270640049587926 0.0
0.9472930182073558 -0.0384860664178548 0.0
1.2635626199553218 -0.3598730466398485 0.0
1.1342764922643249 -0.3554219320309185 0.0
0.4851963478135834 -0.6929424281119174 0.0
1.4821701962249485 -0.0321191475209285 0.0
1.4797226739361278 -0.0295979888531996 0.0
0.3529722893669548 -0.2306650729007393 0.0
0.3233374893574308 -0.2492746835670026 0.0
0.8138543937227385 -0.1184788395577874 0.0
0.8285413986070008 -0.1359121814714023 0.0
1.4042577758205939 -0.0945788665300216 0.0
0.7517926450616594 -0.1191779722949917 0.0
0.7514316217362454 -0.0717514829191364 0.0
0.7519176834572902 -0.0773843662321734 0.0
1.2415210712609077 0.0346647478866489 0.0
1.2008449423856378 0.0288252170447882 0.0
0.7198521693719597 0.0403051349753911 0.0
0.7276961772208174 0.0391244994803594 0.0
1.3705994293897727 -0.0792349050940091 0.0
0.4551635241784763 -0.0573162316256066 0.0
0.4580829464762708 -0.0547621166594181 0.0
0.4629089203405360 -0.1149835292370829 0.0
0.4854122872929623 -0.1083866368488504 0.0
0.7756187624354453 0.0521735787702358 0.0
0.7785566563707190 0.0852703378014515 0.0
-0.1918753726512751 -0.5439624880100802 0.0
1.2281210653338559 -0.7150742898297753 0.0
1.2312903859661968 -0.7804012826539123 0.0
0.5801564362345583 -0.4672468718610006 0.0
0.6261162965388143 -0.4093760713330338 0.0
1.0843830445109457 -0.3768075151952423 0.0
0.6960801165758570 0.0065030758434259 0.0
0.7366109285712666 -0.0542916532504582 0.0
0.6176763762239812 -0.1017599468189187 0.0
0.6154918574119123 -0.1006549611349332 0.0
0.5547111643913269 -0.8894426263406984 0.0
0.2088692081450560 -0.0295652731639293 0.0
0.2011849994059917 -0.0305944860315037 0.0
0.6851989606302930 -1.1828124107045404 0.0
0.7296061798596631 -0.0912352477865299 0.0
0.7278014756666757 -0.0951777583931120 0.0
1.3106829282519208 -0.0881731010731019 0.0
1.3086557917856736 -0.0858843191296498 0.0
0.5059322880743895 -0.2548170414112012 0.0
0.4698935996143866 -0.2662339894439271 0.0
-0.0761843656858609 -0.2690498399448766 0.0
1.3512454158764082 -0.2370015672634179 0.0
0.7069488297599210 -1.2992594479876729 0.0
0.1781317273292279 -0.4165256477653112 0.0
0.4119182695398151 -0.4955187346494715 0.0
1.0172111323324926 -1.1022788898945797 0.0
0.7849610311759893 -1.0421697226127682 0.0
1.4227295637005808 -0.0679875830543250 0.0
1.4292065860603775 -0.0879956760485489 0.0
0.5407929196748675 -1.0306494410114959 0.0
0.9464102623456551 -0.2197565172297607 0.0
0.9237888733456566 -0.2050514167500049 0.0
0.6989998877405796 -0.1323966555291809 0.0
0.6857792508009274 -0.1412083582747585 0.0
1.4191655660778510 -0.0973451978894064 0.0
0.8007132769495463 -0.8340926569307506 0.0
0.3312340625126884 -0.8350565298144247 0.0
1.1356572145100965 -0.1716811698993065 0.0
1.4818924627474113 -0.0512711112923916 0.0
1.4898348841973632 -0.0543248380657229 0.0
1.1550445525226096 -0.1555524506986548 0.0
0.2357766117875633 -0.0003185396175667 0.0
0.2477929230318187 0.0029764318240899 0.0
0.5815248217599880 0.0735853080683339 0.0
1.2269101614920361 -0.1298838638117485 0.0
1.3612369642646194 -0.0529709481174890 0.0
0.3900813593586612 -0.6154693407027025 0.0
0.2892944902793492 -0.1783539404844908 0.0
0.2547320376261005 -0.1888657456632155 0.0
0.4082021647985263 -0.0426496464377311 0.0
0.3798669146928992 -0.0520694454632235 0.0
0.3777321670072887 -0.4861372841944802 0.0
-0.1363608278002426 -0.2245979304730732 0.0
0.7176336169608659 -0.6177100459233078 0.0
0.5816900394652804 0.0284547803378450 0.0
0.5701310711234614 0.0168847004180093 0.0
1.4347854776037510 -0.0237754362619535 0.0
1.4312198429495200 -0.0299939629029685 0.0
0.7901136941063092 -0.9428813047543484 0.0
1.2698747724105204 -0.2176534284017646 0.0
0.5657928201296930 -0.0784825766350777 0.0
0.2201447354733729 -0.0459346778525029 0.0
0.1832538713003418 -0.0506612124749533 0.0
0.3579769875480681 -0.6066587747737195 0.0
0.0866549972072567 -0.1630305675402501 0.0
0.5848158030602356 -0.6143591114536040 0.0
1.2516299990765898 -0.1223666482677509 0.0
0.5992071028220958 -0.3046496322313079 0.0
0.5721970118766747 -0.3286304397251372 0.0
0.5289543162227652 -0.8271692196792199 0.0
0.7280695074023371 0.0785806481969846 0.0
0.7289642906737868 0.0798574835865691 0.0
0.6427440708699351 -0.8233357847381351 0.0
0.0783547381571869 -0.7493924618973634 0.0
0.1162173093725089 -0.5311324420337776 0.0
-0.0004403684522467 -0.1591382322861292 0.0
0.8545462983266747 0.0576144310088662 0.0
0.8257005796226645 0.0813366002239903 0.0
0.8429072958944864 -0.0530800191990014 0.0
0.8193304975477460 -0.0699609257927332 0.0
0.2727657344237448 -0.6950136438462607 0.0
0.9986299378669646 -0.2296268213420192 0.0
0.6343819059650221 -0.7062724695934036 0.0
1.0959903548138630 -0.6678472120336445 0.0
0.7202307866392197 0.0697384980385555 0.0
1.4315495462736227 -0.0241052711146080 0.0
1.4369299143996428 -0.0223317975466631 0.0
1.0809696228309502 -1.1814884365694982 0.0
0.6019256558085260 -0.8153103200150925 0.0
1.4615900741979861 -0.2550821727043310 0.0
0.5944871136374007 -0.8905376307872901 0.0
-0.2731530550813024 -0.8197796060716330 0.0
1.3405250148001349 -0.1906987661418248 0.0
0.3216743955754324 -1.2004350826039176 0.0
1.3601488269653932 -0.1563676301316396 0.0
0.5162215730566808 -0.0141105322304626 0.0
1.4996560004871635 -0.0404153026323578 0.0
1.4817104738488422 -0.0572604755666709 0.0
0.1390544940310141 0.0281793486521103 0.0
0.1627715197032377 0.0327354384097827 0.0
0.6219045343440969 0.0492227185510230 0.0
0.5258678720425083 -0.0998179372753153 0.0
0.0912773661063239 0.0071431615454373 0.0
0.1071199198429602 0.0102932507877839 0.0
0.6160458776856056 -0.0499188428583591 0.0
0.5428806454870481 -0.6111475889742181 0.0
0.6141455621683557 -0.0261780299147821 0.0
0.6138198549995727 -0.0223210489046663 0.0
0.6961820304677122 -0.2382142445214763 0.0
0.7249025513122749 -0.2199520275626520 0.0
0.5335619111352456 -0.5121828101531155 0.0
0.3930332649283896 -0.3115604281069347 0.0
0.4252941834408596 -0.3101120475035288 0.0
0.2478963812284656 0.0385348202336877 0.0
0.2138185709829297 0.0330441014852140 0.0
1.5884951785258994 -0.6233913481897939 0.0
1.0186185823246245 -0.5281970569613234 0.0
0.7298732670055998 -0.4416880835650642 0.0
1.1048127764437927 -0.6494318548166723 0.0
