# vtk DataFile Version 3.0
LucasCarvalhoTCC Results
ASCII

DATASET POLYDATA
FIELD FieldData 1
TIME 1 1 double
5.4

POINTS 380 float
0.0 2.0 0.0
2.0 2.0 0.0
3.0 2.0 0.0
3.0 1.0 0.0
5.0 1.0 0.0
5.0 0.0 0.0
3.0 0.0 0.0
2.0 0.0 0.0
2.0 1.0 0.0
0.0 1.0 0.0
0.2643114543905713 2.0 0.0
0.5169795502969444 2.0 0.0
0.7585171880292413 2.0 0.0
0.9894145836600268 2.0 0.0
1.210140497826619 2.0 0.0
1.421143008568911 2.0 0.0
1.622850459538253 2.0 0.0
1.815672303789548 2.0 0.0
2.188552664328277 2.0 0.0
2.359329284173903 2.0 0.0
2.514005696104645 2.0 0.0
2.654099788331341 2.0 0.0
2.780986322989182 2.0 0.0
2.895910470953052 2.0 0.0
3.0 1.9 0.0
3.0 1.8 0.0
3.0 1.7 0.0
3.0 1.6 0.0
3.0 1.5 0.0
3.0 1.4 0.0
3.0 1.3 0.0
3.0 1.2 0.0
3.0 1.1 0.0
3.105031513416626 1.0 0.0
3.221094637894669 1.0 0.0
3.349348047908936 1.0 0.0
3.491072094154001 1.0 0.0
3.647681638607018 1.0 0.0
3.820740106959136 1.0 0.0
4.011975186625977 1.0 0.0
4.223295996958671 1.0 0.0
4.456812096249916 1.0 0.0
4.714854728122151 1.0 0.0
5.0 0.7500000000000003 0.0
5.0 0.5000000000000012 0.0
5.0 0.2500000000000011 0.0
4.735688545609428 0.0 0.0
4.483020449703056 0.0 0.0
4.241482811970759 0.0 0.0
4.010585416339973 0.0 0.0
3.789859502173381 0.0 0.0
3.578856991431089 0.0 0.0
3.377149540461747 0.0 0.0
3.184327696210452 0.0 0.0
2.811447335671723 0.0 0.0
2.640670715826097 0.0 0.0
2.485994303895355 0.0 0.0
2.345900211668659 0.0 0.0
2.219013677010818 0.0 0.0
2.104089529046948 0.0 0.0
2.0 0.1 0.0
2.0 0.2 0.0
2.0 0.3 0.0
2.0 0.4 0.0
2.0 0.5 0.0
2.0 0.6 0.0
2.0 0.7 0.0
2.0 0.8 0.0
2.0 0.9 0.0
1.894968486583374 1.0 0.0
1.77890536210533 1.0 0.0
1.650651952091063 1.0 0.0
1.508927905845999 1.0 0.0
1.352318361392982 1.0 0.0
1.179259893040864 1.0 0.0
0.9880248133740233 1.0 0.0
0.7767040030413299 1.0 0.0
0.5431879037500846 1.0 0.0
0.2851452718778493 1.0 0.0
0.0 1.25 0.0
0.0 1.499999999999999 0.0
0.0 1.749999999999999 0.0
2.426045913985508 1.348290599604586 0.0
2.562221387987337 0.6558377602558874 0.0
1.966703786708101 1.492474555319359 0.0
3.033486484223225 0.4973568340887861 0.0
2.371610747520728 0.97814425147097 0.0
2.648098402859118 1.648016516253387 0.0
2.351901597140882 0.3519834837466129 0.0
2.694321138879857 1.061432730999581 0.0
1.441644339445862 1.496646809257773 0.0
3.554831642064292 0.501744031268764 0.0
2.720742750697982 1.350625068836981 0.0
2.282037541072919 0.639419348257894 0.0
2.813390610951134 0.7911761792959446 0.0
2.310700631729327 1.679155452525512 0.0
2.688751528716965 0.3206838402855661 0.0
2.211165393176843 1.213708510063781 0.0
0.9449004170027906 1.496357611130017 0.0
4.05509958299721 0.5036423888699835 0.0
3.025501657200047 0.7528388163714679 0.0
1.714778657098197 1.300039655550584 0.0
1.958264922640818 1.245975101752485 0.0
2.206386339371814 0.8500000000000001 0.0
3.336706349465057 0.704398544338507 0.0
4.529565928894533 0.555233644424822 0.0
0.4704340711054673 1.444766355575178 0.0
2.186983355180128 1.461437746541105 0.0
2.553715879020142 0.8859594914241276 0.0
2.782212276375736 0.5474565156445963 0.0
2.500206140967324 1.148517546040804 0.0
2.803373162317882 1.783880361314082 0.0
2.196626837682118 0.2161196386859174 0.0
1.735623536927746 1.664129737658362 0.0
3.268802735993943 0.3358439745752063 0.0
2.799454045372581 1.51553500056848 0.0
2.18762015375897 0.4992029885790829 0.0
2.813478812948685 1.18678600527921 0.0
2.400994471757771 0.7612313552289275 0.0
2.405444563947088 0.5311203927463914 0.0
2.583195945356847 1.473216966241769 0.0
3.734210872783077 0.7260959952797862 0.0
1.256500988572085 1.265010492624376 0.0
2.938353069321001 0.2909212553641365 0.0
2.061245308362322 1.709221243241415 0.0
2.182240881432738 1.001025052084926 0.0
2.830214026212788 0.9796244234047695 0.0
2.49023894829247 1.787687811117195 0.0
2.50976105170753 0.2123121888828049 0.0
1.194806886820808 1.686899295332255 0.0
3.805193113179192 0.3131007046677451 0.0
2.655039231860651 1.208917360245127 0.0
1.493530449555064 1.231198576616718 0.0
2.345622594939228 1.152685186835846 0.0
2.41380980106708 1.521513100394759 0.0
2.58979513084283 0.4863225267637531 0.0
2.135472648094309 0.7246460081196311 0.0
2.912574128751924 0.660128736186259 0.0
2.866043013605144 1.353074765380587 0.0
0.6928324624395237 1.69170809873467 0.0
4.307167537560476 0.3082919012653306 0.0
2.071506740582853 1.128535871978767 0.0
0.6831902494895832 1.302725441792086 0.0
4.316809750510417 0.6972745582079137 0.0
2.85534466702333 1.667491236848871 0.0
2.141886244104996 0.336139391754002 0.0
1.447743165823209 1.773242752731258 0.0
3.554386585610856 0.224002072703283 0.0
2.96485662756902 0.8593908564801968 0.0
3.240425509636175 0.8099760775594669 0.0
2.088410584923666 1.339747073830609 0.0
3.277530767974837 0.4939020807639749 0.0
3.534313505233912 0.7935179117986669 0.0
2.546683861402325 1.011736398479819 0.0
2.664793655038503 0.758149595673951 0.0
2.7009922066801 0.9086021996324817 0.0
1.844652141496971 1.153158997353228 0.0
2.575910747861113 1.316876286520138 0.0
3.994328863599566 0.7454319923658932 0.0
1.005671136400434 1.254568007634107 0.0
1.722192091537185 1.482888323667831 0.0
2.644751416415203 1.850904811198953 0.0
2.355248583584797 0.1490951888010467 0.0
2.31560379269905 1.25706851182614 0.0
2.129697972466254 0.5864366202645266 0.0
2.417220568140766 0.6397160301847872 0.0
2.867945749403976 1.069821281672812 0.0
3.182303046124178 0.6739667261124369 0.0
4.702774994215813 0.2953677284017739 0.0
0.2972250057841874 1.704632271598226 0.0
2.90043748182062 0.4316738443013928 0.0
2.486081387366873 0.3514585853722887 0.0
2.513918612633127 1.648541414627711 0.0
2.086778258621772 1.563111332603502 0.0
4.025359850459486 0.2638518716814435 0.0
0.9746401495405139 1.736148128318556 0.0
3.116389458098145 0.2933651166122753 0.0
1.885410353788165 1.707062521230272 0.0
2.327134732627959 1.833634230002939 0.0
2.672865267372041 0.1663657699970617 0.0
1.675899428547673 1.15999616666306 0.0
1.858973331615206 1.373382723203102 0.0
2.860266039499884 1.862282581689995 0.0
2.139733960500116 0.1377174183100045 0.0
1.257473476073173 1.479081588926576 0.0
3.731624273377778 0.5208146070195914 0.0
2.115038607594509 0.9238947313642476 0.0
0.2734661728051435 1.270630989444945 0.0
4.726533827194856 0.7293690105550548 0.0
2.699965708650878 1.465007479364728 0.0
2.298365077320068 0.5341069340550768 0.0
2.510583000486659 0.7602856732279889 0.0
3.370667741214912 0.8392397884376295 0.0
3.067541604254986 0.8806352314757129 0.0
2.90073732483139 1.443475210354718 0.0
2.264071206758208 0.9501943312745662 0.0
2.278663096491763 0.7489636980394857 0.0
1.952511813454414 1.110576661474517 0.0
2.744352083917141 0.687787375233183 0.0
1.566252941493004 1.383661493752942 0.0
2.437660520624072 0.8703573012735125 0.0
2.904826075218911 1.261819176983655 0.0
2.305967018083784 1.391390767447104 0.0
2.105729326736999 0.8145314366030645 0.0
2.428967188976762 1.236966721617647 0.0
3.060475488407204 0.1442825789852263 0.0
1.934979199332455 1.852811714602595 0.0
2.095475260770118 0.4348597444661615 0.0
2.914777085426361 1.759093454264707 0.0
2.084827330449114 0.2414252069642749 0.0
2.207128288422204 1.315477221019454 0.0
2.658751426439581 0.5773232450959589 0.0
2.612380011409894 1.114144853433198 0.0
2.897371573983894 1.569769587751228 0.0
0.5001010519014215 1.226918930408543 0.0
4.499898948098578 0.7730810695914568 0.0
2.753086810589338 1.690362801865437 0.0
2.246793053318422 0.3097947118702842 0.0
3.391580469276819 0.5673489147038103 0.0
3.035026488699165 0.6179797538177514 0.0
2.449819864663089 1.055109427275025 0.0
2.27653308928065 1.054384468582349 0.0
2.794675693196835 1.418106589018447 0.0
2.778866980525137 1.083577784614141 0.0
2.244522876020972 0.1116738824400324 0.0
2.755477123979027 1.888326117559968 0.0
2.323887028942199 0.8604475039748537 0.0
2.204900210979926 1.747483509451062 0.0
2.794853185869193 0.2526222191943996 0.0
2.320767315286541 1.530441598510029 0.0
1.550828143561484 1.606851581022188 0.0
2.796593663741882 1.288013595743853 0.0
3.436143660897262 0.3940652474171653 0.0
2.682379445750112 0.4493639922429763 0.0
3.242313228541417 0.154845696987206 0.0
1.75965289115187 1.844031320058407 0.0
1.3642341383496 1.159631408929946 0.0
1.980047380836635 1.36362624976796 0.0
2.070303834520089 1.451946835577872 0.0
2.55866460451515 1.229901920133861 0.0
4.26844523535139 0.499131154814159 0.0
0.7315547646486098 1.500868845185841 0.0
2.716116351489881 1.570657861970705 0.0
2.283245236086922 0.4299499540566049 0.0
4.50573905238033 0.204273435313806 0.0
0.4942609476196695 1.795726564686194 0.0
3.605070352001925 0.644396355247622 0.0
3.171946621948212 0.9019117497969773 0.0
3.40309695214227 0.1789624633199048 0.0
1.59690304785773 1.821037536680094 0.0
4.776800700354217 0.5074282293075529 0.0
0.2231992996457826 1.492571770692447 0.0
1.293020597407515 1.839015256431498 0.0
3.706979402592485 0.1609847435685022 0.0
1.398281395597716 1.351857389185529 0.0
2.880181082677912 0.1378504756446906 0.0
2.119200639021148 1.861833157788504 0.0
2.408646939494887 0.2452196658480275 0.0
2.591353060505113 1.754780334151973 0.0
1.146570081566377 1.160946826906423 0.0
3.853429918433624 0.8390531730935771 0.0
2.920846657438631 1.149071660619678 0.0
2.101132283911678 1.226382957654413 0.0
2.903672483971366 0.7774662795474147 0.0
2.516386521935266 0.571665255016536 0.0
2.475412447847437 1.444413760085193 0.0
2.903041575637174 0.5510905120278109 0.0
3.666476299189054 0.8553176740217776 0.0
1.558137053653031 1.119389262041809 0.0
3.867595456948903 0.1475874639835382 0.0
1.132404543051097 1.852412536016462 0.0
2.635017655944937 0.9730281566682446 0.0
2.436667490139274 1.901171080200935 0.0
2.563332509860726 0.09882891979906516 0.0
2.091598337090247 1.040423151014485 0.0
0.8316881289508771 1.172977685150089 0.0
4.168311871049123 0.827022314849911 0.0
3.648565743761548 0.3681286963687066 0.0
1.355037313653319 1.636865536133179 0.0
2.58412781071005 1.576586299624529 0.0
2.41587218928995 0.4234137003754711 0.0
2.083716468691946 0.6634832154935376 0.0
1.843942294678346 1.256771801786488 0.0
[...]
POINT_DATA 380

VECTORS Velocity float
0.0000000000000000 0.0000000000000000 0.0
0.0000000000000000 0.0000000000000000 0.0
0.0000000000000000 0.0000000000000000 0.0
0.0000000000000000 0.0000000000000000 0.0
0.0000000000000000 0.0000000000000000 0.0
0.9186851331945329 -0.1330574036243269 0.0
0.0000000000000000 0.0000000000000000 0.0
0.0000000000000000 0.0000000000000000 0.0
0.0000000000000000 0.0000000000000000 0.0
0.0000000000000000 0.0000000000000000 0.0
0.0000000000000000 0.0000000000000000 0.0
0.0000000000000000 0.0000000000000000 0.0
0.0000000000000000 0.0000000000000000 0.0
0.0000000000000000 0.0000000000000000 0.0
0.0000000000000000 0.0000000000000000 0.0
0.0000000000000000 0.0000000000000000 0.0
0.0000000000000000 0.0000000000000000 0.0
0.0000000000000000 0.0000000000000000 0.0
0.0000000000000000 0.0000000000000000 0.0
0.0000000000000000 0.0000000000000000 0.0
0.0000000000000000 0.0000000000000000 0.0
0.0000000000000000 0.0000000000000000 0.0
0.0000000000000000 0.0000000000000000 0.0
0.0000000000000000 0.0000000000000000 0.0
0.0000000000000000 0.0000000000000000 0.0
0.0000000000000000 0.0000000000000000 0.0
0.0000000000000000 0.0000000000000000 0.0
0.0000000000000000 0.0000000000000000 0.0
0.0000000000000000 0.0000000000000000 0.0
0.0000000000000000 0.0000000000000000 0.0
0.0000000000000000 0.0000000000000000 0.0
0.0000000000000000 0.0000000000000000 0.0
0.0000000000000000 0.0000000000000000 0.0
0.0000000000000000 0.0000000000000000 0.0
0.0000000000000000 0.0000000000000000 0.0
0.0000000000000000 0.0000000000000000 0.0
0.0000000000000000 0.0000000000000000 0.0
0.0000000000000000 0.0000000000000000 0.0
0.0000000000000000 0.0000000000000000 0.0
0.0000000000000000 0.0000000000000000 0.0
0.0000000000000000 0.0000000000000000 0.0
0.0000000000000000 0.0000000000000000 0.0
0.0000000000000000 0.0000000000000000 0.0
1.1551785457122132 0.3642257243452560 0.0
0.7957331381207815 0.0634469329573990 0.0
1.1395835013369924 -0.2964914412791658 0.0
0.0000000000000000 0.0000000000000000 0.0
0.0000000000000000 0.0000000000000000 0.0
0.0000000000000000 0.0000000000000000 0.0
0.0000000000000000 0.0000000000000000 0.0
0.0000000000000000 0.0000000000000000 0.0
0.0000000000000000 0.0000000000000000 0.0
0.0000000000000000 0.0000000000000000 0.0
0.0000000000000000 0.0000000000000000 0.0
0.0000000000000000 0.0000000000000000 0.0
0.0000000000000000 0.0000000000000000 0.0
0.0000000000000000 0.0000000000000000 0.0
0.0000000000000000 0.0000000000000000 0.0
0.0000000000000000 0.0000000000000000 0.0
0.0000000000000000 0.0000000000000000 0.0
0.0000000000000000 0.0000000000000000 0.0
0.0000000000000000 0.0000000000000000 0.0
0.0000000000000000 0.0000000000000000 0.0
0.0000000000000000 0.0000000000000000 0.0
0.0000000000000000 0.0000000000000000 0.0
0.0000000000000000 0.0000000000000000 0.0
0.0000000000000000 0.0000000000000000 0.0
0.0000000000000000 0.0000000000000000 0.0
0.0000000000000000 0.0000000000000000 0.0
0.0000000000000000 0.0000000000000000 0.0
0.0000000000000000 0.0000000000000000 0.0
0.0000000000000000 0.0000000000000000 0.0
0.0000000000000000 0.0000000000000000 0.0
0.0000000000000000 0.0000000000000000 0.0
0.0000000000000000 0.0000000000000000 0.0
0.0000000000000000 0.0000000000000000 0.0
0.0000000000000000 0.0000000000000000 0.0
0.0000000000000000 0.0000000000000000 0.0
0.0000000000000000 0.0000000000000000 0.0
1.0000000000000000 0.0000000000000000 0.0
1.0000000000000000 0.0000000000000000 0.0
1.0000000000000000 0.0000000000000000 0.0
0.9291728164964504 -0.8439158605186883 0.0
0.8125275215864899 -0.8702196504801787 0.0
1.5192041516963770 -0.2547888706818825 0.0
1.4614568171855646 -0.2508911430721669 0.0
0.5931743817377109 -1.2042008751491318 0.0
0.2586096943446020 -0.2066387243924451 0.0
0.2177861291975781 -0.1937814564785210 0.0
0.5777941443472110 -1.2233912173268595 0.0
1.5745030340554373 -0.0760431350580674 0.0
1.6112660023012848 -0.1201608947246409 0.0
0.2727503797642474 -0.6866866547303541 0.0
0.2511400384247028 -0.5972531137536322 0.0
1.1677513930338554 -0.9888235205506657 0.0
0.7035453727384935 -0.2080486216481708 0.0
0.6588963548806407 -0.1949187939587632 0.0
1.1617050887696529 -0.8991341954446322 0.0
1.6001570445935369 -0.0196772425905820 0.0
1.5975327561772124 -0.0092239107913576 0.0
1.4942239373635522 -0.3467146068410339 0.0
1.4994783505864662 -0.0569374169718548 0.0
1.4336965951544138 -0.3067351224600321 0.0
0.2588751514187779 -0.8114333450651089 0.0
1.5179824408791531 -0.0669689692606021 0.0
1.5836185188137684 0.0097510226258518 0.0
1.5334861562076179 0.0359719157489122 0.0
1.2933941832614575 -0.5013371642320471 0.0
0.7033559332883623 -1.2165506826961447 0.0
1.1908201599252102 -0.4603897455450177 0.0
0.6919591693140739 -1.2266534820272283 0.0
0.0488251120611427 -0.0643919959925681 0.0
0.0398860104490694 -0.0543674276633506 0.0
1.1916495542845122 -0.0808377104755059 0.0
1.1133808931582019 -0.0923947332312171 0.0
0.1041380205924484 -0.3124870154889652 0.0
0.0740805651437634 -0.2489010832358002 0.0
0.1741366804936673 -0.7312956994146553 0.0
0.4979277205677078 -0.9771521838367465 0.0
0.4508304326601726 -0.5605102003406208 0.0
0.5247161801708914 -0.5717900222124769 0.0
1.3930765477609415 -0.0126423978957856 0.0
1.3076952878563757 -0.0808491019305715 0.0
0.8072253788985985 -0.1295520410324186 0.0
0.8789200495269798 -0.1317397779461969 0.0
0.5540172724973855 -0.9700357550701041 0.0
0.6248139880557476 -1.0811093050698011 0.0
0.2924561542204374 -0.0362683407307712 0.0
0.2680075898103049 -0.0406010724045445 0.0
1.2771435269345943 0.0117062061764728 0.0
1.2777551322093961 0.0074851273267409 0.0
0.4685792998869193 -1.0614161647035740 0.0
1.2567987570658377 0.0020238415192676 0.0
0.8872126921232282 -1.1040900758610483 0.0
0.7865981697167549 -0.4916045189413019 0.0
0.7946984167392851 -0.5334646172820426 0.0
0.0312485009231187 -0.3438810321040719 0.0
1.5116434302765009 -0.5422058110371440 0.0
0.0639382059797181 -0.3743034976851755 0.0
1.3446618241525075 0.0064332682516431 0.0
1.3451194917270781 0.0149036626418351 0.0
1.0904639187454850 -0.7292861038568652 0.0
1.3761516778209135 -0.0384218112681500 0.0
1.3734665958351326 -0.0565262077927261 0.0
0.0409892660155711 -0.1089789319139755 0.0
0.0355676782979052 -0.0904750075755641 0.0
0.7915318064040766 -0.0085752476977058 0.0
0.7741504305268075 -0.0274696284739237 0.0
1.2364454074753801 -0.5572358922631767 0.0
1.2449150479998370 -0.0997657764758629 0.0
1.4528649617697784 -0.5525248972411881 0.0
1.5356439864975557 -0.0926326709937671 0.0
1.2095876655117326 -0.0649502110340476 0.0
0.6699002488739285 -1.2822950398373578 0.0
0.9549171565890131 -0.9844224347681233 0.0
0.8128060919946452 -1.2466847020764000 0.0
1.0668004323140530 -0.0555117071813883 0.0
0.5993146350932945 -0.9170848609989710 0.0
1.0658865556143884 -0.0517871549197142 0.0
1.0678191885536843 -0.0527302147618671 0.0
1.5801543275817642 -0.0649543717027776 0.0
0.0880948621872083 -0.0378509932779074 0.0
0.0768284579124555 -0.0344867358148108 0.0
1.0556411081946389 -0.9211021692450921 0.0
0.0405780319139451 -0.1825159516370072 0.0
0.4854730061248400 -0.7522217440817419 0.0
0.2470071511803733 -0.7589313319826513 0.0
1.5672703644347912 -0.1593790464516607 0.0
1.2290549903372721 -0.2188991576063667 0.0
1.2102401645950742 -0.2003270239921508 0.0
1.1914005212350669 -0.2690870462056594 0.0
0.3979310716516606 -0.2281978632748661 0.0
0.4387602211257588 -0.2255294662638761 0.0
1.2757144064234645 -0.2946500531788546 0.0
1.0451124981043660 -0.0267246201818389 0.0
1.0429393831109912 -0.0275515403358091 0.0
0.9369994178191048 -0.1125488630227510 0.0
1.0144267426165621 -0.1169846158174520 0.0
0.2701890285371915 -0.0540709140690198 0.0
0.2567671075701414 -0.0503141904755816 0.0
0.8341959546519132 -0.0180132402520761 0.0
1.5836361674539567 -0.1473223289217264 0.0
0.0077698286938738 -0.0177426859745916 0.0
0.0064402529676144 -0.0143449784439590 0.0
1.5372992316568261 -0.0975716106424777 0.0
1.5699379875125967 -0.1293377814026180 0.0
0.1406750344961642 -0.4771261809926588 0.0
1.0959929231643972 0.2306253843739552 0.0
1.0936312345855552 0.2311026590917790 0.0
0.2708259774964568 -0.5064763012554465 0.0
0.2254743529276533 -0.4298803625245373 0.0
0.6822674369036463 -1.0708300982660728 0.0
0.9324816077298734 -0.0545947788798477 0.0
0.8762881497189267 -0.1739051623711655 0.0
0.0346621529966753 -0.1741951544127947 0.0
0.4715345363435669 -1.0915148995410970 0.0
0.2674909244634567 -0.8196098669714996 0.0
0.7738469218278767 -0.1216798400963844 0.0
1.1662661467906537 -0.8149127155354849 0.0
1.5613602800664277 -0.0478222196931987 0.0
0.5832189824171806 -1.1674174311490113 0.0
0.0315968356770714 -0.3040464591686822 0.0
1.1318092961351378 -0.6872698373992939 0.0
0.0706935539381086 -0.2813159617037923 0.0
0.8258688327659235 -1.0810354695174071 0.0
0.4049859064755592 -0.0213494177965408 0.0
0.4321587564310994 -0.0191497952423095 0.0
0.0335417477392124 -0.0863431939167516 0.0
0.0124337069145265 -0.0301275105394696 0.0
0.0104081488845659 -0.0243235919380615 0.0
1.2969311186637476 -0.7657483431993899 0.0
0.9876728319373805 -0.6715035380912060 0.0
0.6002002072580680 -1.2163279282937851 0.0
0.0225623061557526 -0.1107472584416014 0.0
0.8659815218382610 0.1645797495413354 0.0
0.8386430420422855 0.1312773813641206 0.0
0.1315116519151606 -0.1640851776772063 0.0
0.1103304815790322 -0.1424600885558090 0.0
1.6437905044750860 -0.1223842006346964 0.0
1.6094034517138736 -0.3146711630159713 0.0
0.6810073190852681 -1.2694875446766056 0.0
0.7110482824776282 -1.1303306796746970 0.0
0.1357980778247497 -0.4115293688496041 0.0
0.4228753423657030 -1.0549861384885146 0.0
0.0265267218392597 -0.0230474375801165 0.0
0.0314796356886828 -0.0266741683858929 0.0
0.4599000487942901 -1.0553626304501387 0.0
0.6498427166169021 -0.1401250006270327 0.0
0.6042526284377883 -0.1248041706750013 0.0
1.0041948379963241 -0.4499873323124622 0.0
1.3586741216894365 -0.0289863367682090 0.0
0.1581562444964235 -0.5821427094513725 0.0
1.3013557899190686 -0.0660872657999786 0.0
0.9461044965216692 -0.4253680589079307 0.0
0.5001567220483142 -0.0333212343582865 0.0
0.5289435523703276 -0.0359094850546787 0.0
0.8947448426632636 -0.0192260702532647 0.0
1.5440158813194771 -0.3386371602953990 0.0
1.4794054247801043 -0.4057933044335623 0.0
0.5987170475801132 -1.0959413546163830 0.0
1.6000725880165871 -0.0535704420443618 0.0
1.5899155656073669 -0.0451361261375470 0.0
0.1989283482310943 -0.2976028090847179 0.0
0.1667422704657733 -0.2629280554386109 0.0
0.7800074259781645 -0.1433666773250182 0.0
0.8008384814153316 -0.1598521060897517 0.0
1.5614256192977878 -0.0781542428731180 0.0
0.5603841578871884 -0.0548572126253302 0.0
0.6299663904633269 -0.0793788767220060 0.0
0.6585866363381914 -0.0800912332712270 0.0
1.2611527002338350 0.0575613920447871 0.0
1.2108941026279032 0.0466763376238564 0.0
0.6381017049167639 0.0333207994821772 0.0
0.6381586342840424 0.0299955151181502 0.0
1.4571215625434413 -0.0510981232475479 0.0
0.3093472317996689 -0.0562809526226563 0.0
0.3318094873405655 -0.0609211674861903 0.0
0.2115955944266980 -0.1145049864580241 0.0
0.2368936722291122 -0.1197124626266661 0.0
0.7329711653547633 0.0586184140519486 0.0
0.7342616472397635 0.1056493787408233 0.0
0.0465162977438411 -0.3372355233627816 0.0
1.3140318036267733 -0.6937790443999419 0.0
1.3498812817299202 -0.7202260802332583 0.0
0.6751144860176994 -0.6920333097180532 0.0
0.7828231493507056 -0.6313772979670400 0.0
1.4408817020406044 -0.4211757012077764 0.0
0.6081091753649875 0.0247670806402638 0.0
0.6289774718025927 -0.0153668509565248 0.0
0.5362958030154396 -0.1094060945716279 0.0
0.5387132290197586 -0.1068890856219294 0.0
0.6965396029688624 -1.2873978634881453 0.0
0.0906285622222625 -0.0260711517789222 0.0
0.0836407189100094 -0.0267791212267496 0.0
0.5625499859531676 -0.6971580139146930 0.0
0.6720000226042248 -0.0979434960517053 0.0
0.6704767159431039 -0.1057509834506821 0.0
1.3067151578149205 -0.1415999605980499 0.0
1.3135291872034802 -0.1128055937060549 0.0
0.4480094703197106 -0.3376134796793441 0.0
0.3795997124778826 -0.3293763581109775 0.0
0.0050026319401885 -0.1445792896153626 0.0
1.3652938270730754 -0.1377368013530565 0.0
0.6032157011399156 -0.7636191336405924 0.0
0.1110628906039467 -0.3990968834981881 0.0
0.4349309386540214 -0.7506099583712812 0.0
0.9733030750328925 -0.9400192346437642 0.0
0.9075813412029914 -1.1388439158821972 0.0
1.4974176008528959 -0.0661589190440754 0.0
1.4929872423846415 -0.0970883583958618 0.0
0.6567660967235806 -1.2238600697892690 0.0
1.0529220274039730 -0.2820042958228275 0.0
0.9960967638855031 -0.2305949591301627 0.0
0.4998580433556897 -0.1752215684501771 0.0
0.4732978765460275 -0.1795713535740300 0.0
1.5619860244416655 -0.1091922367731191 0.0
1.0080099479615137 -1.1092322426954095 0.0
0.4211343487078968 -1.0692665984663943 0.0
1.2138454442833284 -0.1675729111341086 0.0
1.5660911701920073 -0.0925299287084069 0.0
1.5756326734828934 -0.0980023545285312 0.0
1.2926712489229160 -0.1694901989237679 0.0
0.0885761306744595 -0.0122208064428578 0.0
0.0985283601911354 -0.0106933852371424 0.0
0.4213678449246214 0.0687846330023465 0.0
1.3633865180132252 -0.1367127008166254 0.0
1.3200197445885040 0.0383128916198979 0.0
0.4447202467125763 -0.9248225988600831 0.0
0.0965477881071619 -0.2174029375555885 0.0
0.0759746525441147 -0.1779003145644162 0.0
0.1359018314586314 -0.0832994362354772 0.0
0.1167967114316283 -0.0746559581643001 0.0
0.3670395343322900 -0.6485285881969900 0.0
0.0112952579831543 -0.1080588157189829 0.0
0.9333367973822785 -0.9055223916604095 0.0
0.5211260879858409 0.0366043176904007 0.0
0.5040394009287020 0.0190517685980926 0.0
1.4812030108736600 -0.0484028304041044 0.0
1.4810709984043009 -0.0599340567848921 0.0
0.9562591780774703 -1.0742504950856611 0.0
1.6068164130245355 -0.1636073601792603 0.0
0.4306076915805926 -0.0487722625717782 0.0
0.0113876730480211 -0.0369552383760470 0.0
0.0075808152921747 -0.0302622970688439 0.0
0.3785718824936413 -0.8105844866330252 0.0
0.0158760191734681 -0.0953640776730384 0.0
0.7405755523202735 -0.9844505735537462 0.0
1.4551467793806863 -0.1367406222754964 0.0
0.6399860993050742 -0.4438371317482557 0.0
0.5874431016480424 -0.4549348547434229 0.0
0.6483055734175004 -1.2539950267104634 0.0
0.6698917122695949 0.0780440166896089 0.0
0.6672616759315653 0.0808054618103263 0.0
0.8098860861263040 -1.1998122210838447 0.0
0.1304547982035858 -0.5717903726718173 0.0
0.1088560825683927 -0.4424452421622723 0.0
0.0099456301373742 -0.1050185907257270 0.0
0.8421319460544930 0.0649326999219343 0.0
0.8047573538010434 0.0969208764879596 0.0
0.8330180014470886 -0.0507524506627056 0.0
0.8045918431248352 -0.0670033677088415 0.0
0.3183516529999901 -0.8752507604069889 0.0
0.6344044553489880 -0.1436559411283205 0.0
0.7964343322843075 -1.0674374787897096 0.0
1.3794403426147166 -0.7746823168309362 0.0
0.5295065549411724 0.0851912177256324 0.0
1.4803675241298113 -0.0122516878581564 0.0
1.4842863705115326 -0.0081613723777349 0.0
1.0386656985947222 -0.9777533439410487 0.0
0.7532741187505160 -1.2191899587500443 0.0
1.3240443544724450 -0.1500970838977134 0.0
0.7240934303098913 -1.2277250736294243 0.0
0.0896173202697360 -0.3775124348815955 0.0
1.1750193131095878 -0.0504903366397086 0.0
0.3746214241287728 -0.8965219955369621 0.0
1.6568957282546031 -0.0892518410956521 0.0
0.4123718046422340 -0.0054103449321570 0.0
1.5813556093375378 -0.0860522294143738 0.0
1.5503909078408165 -0.0992800915666989 0.0
-0.0066708201551943 -0.0013786638374721 0.0
-0.0079389732121847 -0.0018771512165644 0.0
0.5347248055229822 0.0430314740982848 0.0
0.3398019355420863 -0.0415708070808245 0.0
-0.0036214748026668 -0.0054409942625486 0.0
-0.0039460180431938 -0.0066174417051789 0.0
0.5569903199310968 -0.0346533746615555 0.0
0.6461265547053764 -0.9262713456445766 0.0
0.5591490408181050 -0.0341166715553457 0.0
0.5533710606400408 -0.0270383373633891 0.0
0.6777311909105435 -0.3318888655457629 0.0
0.7361314732160559 -0.3299147201713529 0.0
0.6462262327131645 -0.8130819442951034 0.0
0.2856475356720784 -0.3847664299395491 0.0
0.3359365225599124 -0.4359313129219022 0.0
-0.0084277243504287 -0.0037130578381736 0.0
-0.0070228774566303 -0.0028587932852274 0.0
1.2705425495921607 -0.4518588116637619 0.0
1.3672405380279824 -0.6541682329049466 0.0
0.9557685988346484 -0.6510728482221599 0.0
0.7342760758012645 -0.4174326354584951 0.0
