# vtk DataFile Version 3.0
LucasCarvalhoTCC Results
ASCII

DATASET POLYDATA
FIELD FieldData 1
TIME 1 1 double
5.7

POINTS 380 float
0.0 2.0 0.0
2.0 2.0 0.0
3.0 2.0 0.0
3.0 1.0 0.0
5.0 1.0 0.0
5.0 0.0 0.0
3.0 0.0 0.0
2.0 0.0 0.0
2.0 1.0 0.0
0.0 1.0 0.0
0.2643114543905713 2.0 0.0
0.5169795502969444 2.0 0.0
0.7585171880292413 2.0 0.0
0.9894145836600268 2.0 0.0
1.210140497826619 2.0 0.0
1.421143008568911 2.0 0.0
1.622850459538253 2.0 0.0
1.815672303789548 2.0 0.0
2.188552664328277 2.0 0.0
2.359329284173903 2.0 0.0
2.514005696104645 2.0 0.0
2.654099788331341 2.0 0.0
2.780986322989182 2.0 0.0
2.895910470953052 2.0 0.0
3.0 1.9 0.0
3.0 1.8 0.0
3.0 1.7 0.0
3.0 1.6 0.0
3.0 1.5 0.0
3.0 1.4 0.0
3.0 1.3 0.0
3.0 1.2 0.0
3.0 1.1 0.0
3.105031513416626 1.0 0.0
3.221094637894669 1.0 0.0
3.349348047908936 1.0 0.0
3.491072094154001 1.0 0.0
3.647681638607018 1.0 0.0
3.820740106959136 1.0 0.0
4.011975186625977 1.0 0.0
4.223295996958671 1.0 0.0
4.456812096249916 1.0 0.0
4.714854728122151 1.0 0.0
5.0 0.7500000000000003 0.0
5.0 0.5000000000000012 0.0
5.0 0.2500000000000011 0.0
4.735688545609428 0.0 0.0
4.483020449703056 0.0 0.0
4.241482811970759 0.0 0.0
4.010585416339973 0.0 0.0
3.789859502173381 0.0 0.0
3.578856991431089 0.0 0.0
3.377149540461747 0.0 0.0
3.184327696210452 0.0 0.0
2.811447335671723 0.0 0.0
2.640670715826097 0.0 0.0
2.485994303895355 0.0 0.0
2.345900211668659 0.0 0.0
2.219013677010818 0.0 0.0
2.104089529046948 0.0 0.0
2.0 0.1 0.0
2.0 0.2 0.0
2.0 0.3 0.0
2.0 0.4 0.0
2.0 0.5 0.0
2.0 0.6 0.0
2.0 0.7 0.0
2.0 0.8 0.0
2.0 0.9 0.0
1.894968486583374 1.0 0.0
1.77890536210533 1.0 0.0
1.650651952091063 1.0 0.0
1.508927905845999 1.0 0.0
1.352318361392982 1.0 0.0
1.179259893040864 1.0 0.0
0.9880248133740233 1.0 0.0
0.7767040030413299 1.0 0.0
0.5431879037500846 1.0 0.0
0.2851452718778493 1.0 0.0
0.0 1.25 0.0
0.0 1.499999999999999 0.0
0.0 1.749999999999999 0.0
2.426045913985508 1.348290599604586 0.0
2.562221387987337 0.6558377602558874 0.0
1.966703786708101 1.492474555319359 0.0
3.033486484223225 0.4973568340887861 0.0
2.371610747520728 0.97814425147097 0.0
2.648098402859118 1.648016516253387 0.0
2.351901597140882 0.3519834837466129 0.0
2.694321138879857 1.061432730999581 0.0
1.441644339445862 1.496646809257773 0.0
3.554831642064292 0.501744031268764 0.0
2.720742750697982 1.350625068836981 0.0
2.282037541072919 0.639419348257894 0.0
2.813390610951134 0.7911761792959446 0.0
2.310700631729327 1.679155452525512 0.0
2.688751528716965 0.3206838402855661 0.0
2.211165393176843 1.213708510063781 0.0
0.9449004170027906 1.496357611130017 0.0
4.05509958299721 0.5036423888699835 0.0
3.025501657200047 0.7528388163714679 0.0
1.714778657098197 1.300039655550584 0.0
1.958264922640818 1.245975101752485 0.0
2.206386339371814 0.8500000000000001 0.0
3.336706349465057 0.704398544338507 0.0
4.529565928894533 0.555233644424822 0.0
0.4704340711054673 1.444766355575178 0.0
2.186983355180128 1.461437746541105 0.0
2.553715879020142 0.8859594914241276 0.0
2.782212276375736 0.5474565156445963 0.0
2.500206140967324 1.148517546040804 0.0
2.803373162317882 1.783880361314082 0.0
2.196626837682118 0.2161196386859174 0.0
1.735623536927746 1.664129737658362 0.0
3.268802735993943 0.3358439745752063 0.0
2.799454045372581 1.51553500056848 0.0
2.18762015375897 0.4992029885790829 0.0
2.813478812948685 1.18678600527921 0.0
2.400994471757771 0.7612313552289275 0.0
2.405444563947088 0.5311203927463914 0.0
2.583195945356847 1.473216966241769 0.0
3.734210872783077 0.7260959952797862 0.0
1.256500988572085 1.265010492624376 0.0
2.938353069321001 0.2909212553641365 0.0
2.061245308362322 1.709221243241415 0.0
2.182240881432738 1.001025052084926 0.0
2.830214026212788 0.9796244234047695 0.0
2.49023894829247 1.787687811117195 0.0
2.50976105170753 0.2123121888828049 0.0
1.194806886820808 1.686899295332255 0.0
3.805193113179192 0.3131007046677451 0.0
2.655039231860651 1.208917360245127 0.0
1.493530449555064 1.231198576616718 0.0
2.345622594939228 1.152685186835846 0.0
2.41380980106708 1.521513100394759 0.0
2.58979513084283 0.4863225267637531 0.0
2.135472648094309 0.7246460081196311 0.0
2.912574128751924 0.660128736186259 0.0
2.866043013605144 1.353074765380587 0.0
0.6928324624395237 1.69170809873467 0.0
4.307167537560476 0.3082919012653306 0.0
2.071506740582853 1.128535871978767 0.0
0.6831902494895832 1.302725441792086 0.0
4.316809750510417 0.6972745582079137 0.0
2.85534466702333 1.667491236848871 0.0
2.141886244104996 0.336139391754002 0.0
1.447743165823209 1.773242752731258 0.0
3.554386585610856 0.224002072703283 0.0
2.96485662756902 0.8593908564801968 0.0
3.240425509636175 0.8099760775594669 0.0
2.088410584923666 1.339747073830609 0.0
3.277530767974837 0.4939020807639749 0.0
3.534313505233912 0.7935179117986669 0.0
2.546683861402325 1.011736398479819 0.0
2.664793655038503 0.758149595673951 0.0
2.7009922066801 0.9086021996324817 0.0
1.844652141496971 1.153158997353228 0.0
2.575910747861113 1.316876286520138 0.0
3.994328863599566 0.7454319923658932 0.0
1.005671136400434 1.254568007634107 0.0
1.722192091537185 1.482888323667831 0.0
2.644751416415203 1.850904811198953 0.0
2.355248583584797 0.1490951888010467 0.0
2.31560379269905 1.25706851182614 0.0
2.129697972466254 0.5864366202645266 0.0
2.417220568140766 0.6397160301847872 0.0
2.867945749403976 1.069821281672812 0.0
3.182303046124178 0.6739667261124369 0.0
4.702774994215813 0.2953677284017739 0.0
0.2972250057841874 1.704632271598226 0.0
2.90043748182062 0.4316738443013928 0.0
2.486081387366873 0.3514585853722887 0.0
2.513918612633127 1.648541414627711 0.0
2.086778258621772 1.563111332603502 0.0
4.025359850459486 0.2638518716814435 0.0
0.9746401495405139 1.736148128318556 0.0
3.116389458098145 0.2933651166122753 0.0
1.885410353788165 1.707062521230272 0.0
2.327134732627959 1.833634230002939 0.0
2.672865267372041 0.1663657699970617 0.0
1.675899428547673 1.15999616666306 0.0
1.858973331615206 1.373382723203102 0.0
2.860266039499884 1.862282581689995 0.0
2.139733960500116 0.1377174183100045 0.0
1.257473476073173 1.479081588926576 0.0
3.731624273377778 0.5208146070195914 0.0
2.115038607594509 0.9238947313642476 0.0
0.2734661728051435 1.270630989444945 0.0
4.726533827194856 0.7293690105550548 0.0
2.699965708650878 1.465007479364728 0.0
2.298365077320068 0.5341069340550768 0.0
2.510583000486659 0.7602856732279889 0.0
3.370667741214912 0.8392397884376295 0.0
3.067541604254986 0.8806352314757129 0.0
2.90073732483139 1.443475210354718 0.0
2.264071206758208 0.9501943312745662 0.0
2.278663096491763 0.7489636980394857 0.0
1.952511813454414 1.110576661474517 0.0
2.744352083917141 0.687787375233183 0.0
1.566252941493004 1.383661493752942 0.0
2.437660520624072 0.8703573012735125 0.0
2.904826075218911 1.261819176983655 0.0
2.305967018083784 1.391390767447104 0.0
2.105729326736999 0.8145314366030645 0.0
2.428967188976762 1.236966721617647 0.0
3.060475488407204 0.1442825789852263 0.0
1.934979199332455 1.852811714602595 0.0
2.095475260770118 0.4348597444661615 0.0
2.914777085426361 1.759093454264707 0.0
2.084827330449114 0.2414252069642749 0.0
2.207128288422204 1.315477221019454 0.0
2.658751426439581 0.5773232450959589 0.0
2.612380011409894 1.114144853433198 0.0
2.897371573983894 1.569769587751228 0.0
0.5001010519014215 1.226918930408543 0.0
4.499898948098578 0.7730810695914568 0.0
2.753086810589338 1.690362801865437 0.0
2.246793053318422 0.3097947118702842 0.0
3.391580469276819 0.5673489147038103 0.0
3.035026488699165 0.6179797538177514 0.0
2.449819864663089 1.055109427275025 0.0
2.27653308928065 1.054384468582349 0.0
2.794675693196835 1.418106589018447 0.0
2.778866980525137 1.083577784614141 0.0
2.244522876020972 0.1116738824400324 0.0
2.755477123979027 1.888326117559968 0.0
2.323887028942199 0.8604475039748537 0.0
2.204900210979926 1.747483509451062 0.0
2.794853185869193 0.2526222191943996 0.0
2.320767315286541 1.530441598510029 0.0
1.550828143561484 1.606851581022188 0.0
2.796593663741882 1.288013595743853 0.0
3.436143660897262 0.3940652474171653 0.0
2.682379445750112 0.4493639922429763 0.0
3.242313228541417 0.154845696987206 0.0
1.75965289115187 1.844031320058407 0.0
1.3642341383496 1.159631408929946 0.0
1.980047380836635 1.36362624976796 0.0
2.070303834520089 1.451946835577872 0.0
2.55866460451515 1.229901920133861 0.0
4.26844523535139 0.499131154814159 0.0
0.7315547646486098 1.500868845185841 0.0
2.716116351489881 1.570657861970705 0.0
2.283245236086922 0.4299499540566049 0.0
4.50573905238033 0.204273435313806 0.0
0.4942609476196695 1.795726564686194 0.0
3.605070352001925 0.644396355247622 0.0
3.171946621948212 0.9019117497969773 0.0
3.40309695214227 0.1789624633199048 0.0
1.59690304785773 1.821037536680094 0.0
4.776800700354217 0.5074282293075529 0.0
0.2231992996457826 1.492571770692447 0.0
1.293020597407515 1.839015256431498 0.0
3.706979402592485 0.1609847435685022 0.0
1.398281395597716 1.351857389185529 0.0
2.880181082677912 0.1378504756446906 0.0
2.119200639021148 1.861833157788504 0.0
2.408646939494887 0.2452196658480275 0.0
2.591353060505113 1.754780334151973 0.0
1.146570081566377 1.160946826906423 0.0
3.853429918433624 0.8390531730935771 0.0
2.920846657438631 1.149071660619678 0.0
2.101132283911678 1.226382957654413 0.0
2.903672483971366 0.7774662795474147 0.0
2.516386521935266 0.571665255016536 0.0
2.475412447847437 1.444413760085193 0.0
2.903041575637174 0.5510905120278109 0.0
3.666476299189054 0.8553176740217776 0.0
1.558137053653031 1.119389262041809 0.0
3.867595456948903 0.1475874639835382 0.0
1.132404543051097 1.852412536016462 0.0
2.635017655944937 0.9730281566682446 0.0
2.436667490139274 1.901171080200935 0.0
2.563332509860726 0.09882891979906516 0.0
2.091598337090247 1.040423151014485 0.0
0.8316881289508771 1.172977685150089 0.0
4.168311871049123 0.827022314849911 0.0
3.648565743761548 0.3681286963687066 0.0
1.355037313653319 1.636865536133179 0.0
2.58412781071005 1.576586299624529 0.0
2.41587218928995 0.4234137003754711 0.0
2.083716468691946 0.6634832154935376 0.0
1.843942294678346 1.256771801786488 0.0
[...]
POINT_DATA 380

VECTORS Velocity float
0.0000000000000000 0.0000000000000000 0.0
0.0000000000000000 0.0000000000000000 0.0
0.0000000000000000 0.0000000000000000 0.0
0.0000000000000000 0.0000000000000000 0.0
0.0000000000000000 0.0000000000000000 0.0
0.9186850829695775 -0.1330574793306800 0.0
0.0000000000000000 0.0000000000000000 0.0
0.0000000000000000 0.0000000000000000 0.0
0.0000000000000000 0.0000000000000000 0.0
0.0000000000000000 0.0000000000000000 0.0
0.0000000000000000 0.0000000000000000 0.0
0.0000000000000000 0.0000000000000000 0.0
0.0000000000000000 0.0000000000000000 0.0
0.0000000000000000 0.0000000000000000 0.0
0.0000000000000000 0.0000000000000000 0.0
0.0000000000000000 0.0000000000000000 0.0
0.0000000000000000 0.0000000000000000 0.0
0.0000000000000000 0.0000000000000000 0.0
0.0000000000000000 0.0000000000000000 0.0
0.0000000000000000 0.0000000000000000 0.0
0.0000000000000000 0.0000000000000000 0.0
0.0000000000000000 0.0000000000000000 0.0
0.0000000000000000 0.0000000000000000 0.0
0.0000000000000000 0.0000000000000000 0.0
0.0000000000000000 0.0000000000000000 0.0
0.0000000000000000 0.0000000000000000 0.0
0.0000000000000000 0.0000000000000000 0.0
0.0000000000000000 0.0000000000000000 0.0
0.0000000000000000 0.0000000000000000 0.0
0.0000000000000000 0.0000000000000000 0.0
0.0000000000000000 0.0000000000000000 0.0
0.0000000000000000 0.0000000000000000 0.0
0.0000000000000000 0.0000000000000000 0.0
0.0000000000000000 0.0000000000000000 0.0
0.0000000000000000 0.0000000000000000 0.0
0.0000000000000000 0.0000000000000000 0.0
0.0000000000000000 0.0000000000000000 0.0
0.0000000000000000 0.0000000000000000 0.0
0.0000000000000000 0.0000000000000000 0.0
0.0000000000000000 0.0000000000000000 0.0
0.0000000000000000 0.0000000000000000 0.0
0.0000000000000000 0.0000000000000000 0.0
0.0000000000000000 0.0000000000000000 0.0
1.1551779454159627 0.3642278748804425 0.0
0.7957331334362968 0.0634512114624998 0.0
1.1395837267629483 -0.2964889663838103 0.0
0.0000000000000000 0.0000000000000000 0.0
0.0000000000000000 0.0000000000000000 0.0
0.0000000000000000 0.0000000000000000 0.0
0.0000000000000000 0.0000000000000000 0.0
0.0000000000000000 0.0000000000000000 0.0
0.0000000000000000 0.0000000000000000 0.0
0.0000000000000000 0.0000000000000000 0.0
0.0000000000000000 0.0000000000000000 0.0
0.0000000000000000 0.0000000000000000 0.0
0.0000000000000000 0.0000000000000000 0.0
0.0000000000000000 0.0000000000000000 0.0
0.0000000000000000 0.0000000000000000 0.0
0.0000000000000000 0.0000000000000000 0.0
0.0000000000000000 0.0000000000000000 0.0
0.0000000000000000 0.0000000000000000 0.0
0.0000000000000000 0.0000000000000000 0.0
0.0000000000000000 0.0000000000000000 0.0
0.0000000000000000 0.0000000000000000 0.0
0.0000000000000000 0.0000000000000000 0.0
0.0000000000000000 0.0000000000000000 0.0
0.0000000000000000 0.0000000000000000 0.0
0.0000000000000000 0.0000000000000000 0.0
0.0000000000000000 0.0000000000000000 0.0
0.0000000000000000 0.0000000000000000 0.0
0.0000000000000000 0.0000000000000000 0.0
0.0000000000000000 0.0000000000000000 0.0
0.0000000000000000 0.0000000000000000 0.0
0.0000000000000000 0.0000000000000000 0.0
0.0000000000000000 0.0000000000000000 0.0
0.0000000000000000 0.0000000000000000 0.0
0.0000000000000000 0.0000000000000000 0.0
0.0000000000000000 0.0000000000000000 0.0
0.0000000000000000 0.0000000000000000 0.0
1.0000000000000000 0.0000000000000000 0.0
1.0000000000000000 0.0000000000000000 0.0
1.0000000000000000 0.0000000000000000 0.0
0.9306462306232545 -0.8473788090895620 0.0
0.8138603668111135 -0.8744268677306908 0.0
1.5196872873195491 -0.2543280173574133 0.0
1.4618445812958625 -0.2506122531587175 0.0
0.5944588680676491 -1.2057022908214741 0.0
0.2565657511463584 -0.2066616630287146 0.0
0.2153461945341446 -0.1931971074361031 0.0
0.5788686149559198 -1.2243407950079102 0.0
1.5745050246607266 -0.0759504643724153 0.0
1.6112574346025876 -0.1202612185216599 0.0
0.2723191716995569 -0.6853720662044361 0.0
0.2506990477071277 -0.5944395810251769 0.0
1.1691338462124128 -0.9881985510888007 0.0
0.7034985259717761 -0.2091212857346101 0.0
0.6580136314347855 -0.1960972749417745 0.0
1.1624166014610660 -0.8986590062272475 0.0
1.6001595479319544 -0.0197107417478383 0.0
1.5975333661764664 -0.0092512634810236 0.0
1.4941773213884886 -0.3459120197650555 0.0
1.4993443034117897 -0.0565050818699652 0.0
1.4331480175988809 -0.3057504428953848 0.0
0.2594325643867041 -0.8079054601994324 0.0
1.5181158605273322 -0.0668973645615929 0.0
1.5836159446249951 0.0097564731364059 0.0
1.5334863018982778 0.0359719296017437 0.0
1.2945657057832483 -0.5019377484306943 0.0
0.7055251309679853 -1.2215305508598755 0.0
1.1918893980826144 -0.4618085407673089 0.0
0.6936507023123711 -1.2315945978879739 0.0
0.0476997569764233 -0.0638859052307209 0.0
0.0388526221321612 -0.0536232960715909 0.0
1.1918158734071038 -0.0806450849679820 0.0
1.1132282492656178 -0.0923599052930192 0.0
0.1030624501568807 -0.3101601320353134 0.0
0.0731369303471052 -0.2461933566990993 0.0
0.1743126766296662 -0.7280801946553992 0.0
0.4990100938328764 -0.9782417408591001 0.0
0.4495810687902212 -0.5609240252914305 0.0
0.5241206300799399 -0.5735290024200855 0.0
1.3931434408683545 -0.0127047728648478 0.0
1.3077377315871415 -0.0808543259000905 0.0
0.8071452463171175 -0.1297796339193616 0.0
0.8793572600043066 -0.1318530080834749 0.0
0.5538105963304619 -0.9669006818452176 0.0
0.6251781633073727 -1.0782119932484782 0.0
0.2912192598214118 -0.0366848965203751 0.0
0.2662107856898026 -0.0409900020937041 0.0
1.2771018160626975 0.0116913697549447 0.0
1.2777130674765824 0.0074314245540226 0.0
0.4692526375172814 -1.0631959690547099 0.0
1.2567877837060855 0.0021127003028138 0.0
0.8886926680459996 -1.1060057308867168 0.0
0.7868463964745160 -0.4941975385752149 0.0
0.7943016765821832 -0.5363715453448628 0.0
0.0317838559777080 -0.3407597862929169 0.0
1.5123395885918469 -0.5414851972896301 0.0
0.0638467003147272 -0.3713817176489709 0.0
1.3446608723940756 0.0064281623561478 0.0
1.3451283940071432 0.0149056500352776 0.0
1.0892633301726262 -0.7271361959279720 0.0
1.3761529283375453 -0.0384256974082650 0.0
1.3734574089493830 -0.0565231210305900 0.0
0.0400035549414793 -0.1079386119305942 0.0
0.0346800913687251 -0.0891655289571801 0.0
0.7915195555808869 -0.0085397104520942 0.0
0.7740491187861364 -0.0275042365068395 0.0
1.2358875007335848 -0.5557165077254493 0.0
1.2449989907160854 -0.0996418274113435 0.0
1.4534001811051271 -0.5517703574228449 0.0
1.5356178730814023 -0.0925564788764106 0.0
1.2097315443994543 -0.0650147659265529 0.0
0.6718732713217913 -1.2873815571585625 0.0
0.9572233397638122 -0.9877943507594587 0.0
0.8144111407751391 -1.2484155960271452 0.0
1.0660489165154183 -0.0551510588293636 0.0
0.6001000856540594 -0.9202586169795767 0.0
1.0658879033333324 -0.0518031608138900 0.0
1.0678370481718540 -0.0527523162237214 0.0
1.5802484681846709 -0.0645879595545575 0.0
0.0871428197201558 -0.0377346398895211 0.0
0.0757248875212281 -0.0342582820759607 0.0
1.0571612077835046 -0.9228674263417311 0.0
0.0403011756097217 -0.1803095165819904 0.0
0.4853647083792707 -0.7534081945179307 0.0
0.2473047845680217 -0.7554455104136328 0.0
1.5673825720003420 -0.1589804716866313 0.0
1.2290579079523793 -0.2188963839871829 0.0
1.2102409921102899 -0.2003261262725313 0.0
1.1918338066582206 -0.2693299636748578 0.0
0.3957029451775036 -0.2288491816408678 0.0
0.4373250453119555 -0.2265375997994155 0.0
1.2765312595050524 -0.2946182123384018 0.0
1.0451102112296153 -0.0267496614851371 0.0
1.0429202182838246 -0.0275751258318638 0.0
0.9368933330329975 -0.1125263608240507 0.0
1.0147368515480431 -0.1168831134105502 0.0
0.2699000885056059 -0.0543590019249086 0.0
0.2561011762801920 -0.0505853357953064 0.0
0.8340036768808008 -0.0179018831192347 0.0
1.5837408281150778 -0.1467420500950651 0.0
0.0071513525920244 -0.0176524793765964 0.0
0.0059758339235417 -0.0141593157245602 0.0
1.5373013566149250 -0.0975682890545945 0.0
1.5699516746869022 -0.1294442765239825 0.0
0.1409252790532435 -0.4746297194590163 0.0
1.0959921143494602 0.2306264173984106 0.0
1.0936281738400748 0.2311049413880749 0.0
0.2697393229143356 -0.5055573398083207 0.0
0.2241338716550023 -0.4275663419068170 0.0
0.6840648967685407 -1.0750798802790935 0.0
0.9326446574613384 -0.0546087221634463 0.0
0.8760383817512388 -0.1734637973304561 0.0
0.0343446271808792 -0.1724175264075897 0.0
0.4720121506966697 -1.0895759011587405 0.0
0.2679665140035862 -0.8171371874123234 0.0
0.7729418971937966 -0.1213785720732627 0.0
1.1681875884467257 -0.8166654298565412 0.0
1.5613539122967890 -0.0475950744327152 0.0
0.5848504395035662 -1.1705496319033102 0.0
0.0317369247348116 -0.3017609355706165 0.0
1.1333019645182525 -0.6891712412097116 0.0
0.0709693458761362 -0.2791271696858593 0.0
0.8274903783496212 -1.0849823164421479 0.0
0.4049002631134999 -0.0213500984707256 0.0
0.4323394339726025 -0.0191309107817219 0.0
0.0327687977069666 -0.0850316174160172 0.0
0.0117391266896273 -0.0298428488413262 0.0
0.0098700680145381 -0.0239461234839302 0.0
1.2979454897880294 -0.7657817456955903 0.0
0.9886948099456411 -0.6747172508337207 0.0
0.6014444414611562 -1.2198236925192445 0.0
0.0219823514330136 -0.1095328837462434 0.0
0.8659802460912150 0.1645795391148427 0.0
0.8386380228494336 0.1312787272113901 0.0
0.1298292754782748 -0.1631631986445992 0.0
0.1085912680865515 -0.1410138509102893 0.0
1.6438097643684630 -0.1224184774708096 0.0
1.6097427260242652 -0.3141238506487848 0.0
0.6827444881815585 -1.2738460932193238 0.0
0.7116641749982276 -1.1295527174902191 0.0
0.1351381774819041 -0.4088676924725559 0.0
0.4232424970020928 -1.0527094865187159 0.0
0.0258884055069244 -0.0227460890863559 0.0
0.0308304061085514 -0.0264608973299021 0.0
0.4608095144784896 -1.0544658038795758 0.0
0.6499774632286545 -0.1405052087594908 0.0
0.6037115919191776 -0.1252295200535314 0.0
1.0050602042595713 -0.4517072174548639 0.0
1.3587022877091903 -0.0288146600558110 0.0
0.1580003955413087 -0.5791908620627083 0.0
1.3012322900066435 -0.0661261752435372 0.0
0.9461454759285580 -0.4274413530925729 0.0
0.5000663791718427 -0.0333004409957756 0.0
0.5290725668567537 -0.0358612376606669 0.0
0.8947807377826507 -0.0192047486969378 0.0
1.5442320679408212 -0.3378250470498724 0.0
1.4801239183818156 -0.4054570059690380 0.0
0.5997575025674134 -1.1000039106479433 0.0
1.6000718173290556 -0.0535703860018012 0.0
1.5899159923069925 -0.0451480421394468 0.0
0.1971659061455567 -0.2964694259089066 0.0
0.1648605967957102 -0.2608415887499952 0.0
0.7800128927540065 -0.1433654158222605 0.0
0.8008393471451334 -0.1598525054158933 0.0
1.5615092406237303 -0.0782628179041267 0.0
0.5603913273202230 -0.0547183250970359 0.0
0.6298543473827272 -0.0793717477057442 0.0
0.6586238597959148 -0.0800270548476545 0.0
1.2611528970379517 0.0575651495101145 0.0
1.2108940940832755 0.0466775423312353 0.0
0.6380666305099254 0.0333251574524561 0.0
0.6381034517579772 0.0299695183050200 0.0
1.4571365255337791 -0.0510244648545928 0.0
0.3092327304477078 -0.0564134130895229 0.0
0.3319688844314113 -0.0610515956426794 0.0
0.2095620406486293 -0.1143685085034917 0.0
0.2352955421786044 -0.1198693207499218 0.0
0.7330033103550975 0.0586068427288248 0.0
0.7342765149283114 0.1056353047566814 0.0
0.0469265423882532 -0.3349961548197768 0.0
1.3139097028879723 -0.6925086744431020 0.0
1.3502937759036671 -0.7187666620441970 0.0
0.6748899067539772 -0.6948309478502235 0.0
0.7834738222082148 -0.6346245316378955 0.0
1.4417550709612577 -0.4211850625754804 0.0
0.6081574516738137 0.0247445222205279 0.0
0.6289367692052077 -0.0152976198607838 0.0
0.5362747608558591 -0.1094210103380000 0.0
0.5386839626894813 -0.1068948173539678 0.0
0.6983791693965620 -1.2910160746719535 0.0
0.0901368488997351 -0.0262204801810700 0.0
0.0829716161051291 -0.0269158637749242 0.0
0.5619054862686205 -0.6945668335411662 0.0
0.6720053817753331 -0.0979515704300373 0.0
0.6704703701832666 -0.1057531445499958 0.0
1.3066366102312810 -0.1416867460323248 0.0
1.3134970356474935 -0.1127581001801985 0.0
0.4463262905550029 -0.3385625266167437 0.0
0.3771860877078819 -0.3296259641779095 0.0
0.0053165399512818 -0.1428188688872712 0.0
1.3649522630069786 -0.1371374335576217 0.0
0.6029233104605665 -0.7606994157357213 0.0
0.1104357609989109 -0.3958333791543024 0.0
0.4345746864903419 -0.7519335806374889 0.0
0.9729134272201254 -0.9378614023282161 0.0
0.9086585068526560 -1.1379387377892989 0.0
1.4974440187998428 -0.0662164626362851 0.0
1.4930157197940013 -0.0971272142171286 0.0
0.6577407093465258 -1.2238208690348209 0.0
1.0536677619711829 -0.2827802110134578 0.0
0.9963019440705898 -0.2315630449280776 0.0
0.4990399898119896 -0.1762741126483762 0.0
0.4716715903917337 -0.1805563183563088 0.0
1.5621126192539372 -0.1092811208130882 0.0
1.0099295814467588 -1.1107468666780123 0.0
0.4217111282638524 -1.0688915981369158 0.0
1.2139555604068666 -0.1675064023622396 0.0
1.5660813928774426 -0.0925692066482382 0.0
1.5756300360915543 -0.0980668966458683 0.0
1.2932105141682322 -0.1693061334647196 0.0
0.0876284008815454 -0.0123461979423493 0.0
0.0977754848699854 -0.0108411292089391 0.0
0.4214481697231490 0.0688137796884543 0.0
1.3633982966235145 -0.1365684377104850 0.0
1.3199197754006458 0.0385270699094284 0.0
0.4451191351342138 -0.9262344239856162 0.0
0.0951486723946973 -0.2157713359476464 0.0
0.0746455002243689 -0.1758032296644372 0.0
0.1342865736767755 -0.0830084339002034 0.0
0.1150137368761935 -0.0740676435407578 0.0
0.3663569965839689 -0.6474263445415382 0.0
0.0115981278314115 -0.1069380034685569 0.0
0.9352519632498930 -0.9091027943653521 0.0
0.5211259210965815 0.0366031495414898 0.0
0.5040334535286740 0.0190529449850633 0.0
1.4812116713342509 -0.0484187005098827 0.0
1.4810660603493997 -0.0599397196699788 0.0
0.9572572106111458 -1.0738575852777763 0.0
1.6070048929743028 -0.1632452164422468 0.0
0.4306999426796487 -0.0488067387641400 0.0
0.0107108442430414 -0.0364962937265545 0.0
0.0070521442738959 -0.0297506156486361 0.0
0.3789972426330459 -0.8095912799888808 0.0
0.0154129756745358 -0.0939092009463373 0.0
0.7417531740062078 -0.9888554472498683 0.0
1.4554368426160418 -0.1364008717217861 0.0
0.6394100704157062 -0.4460513207853657 0.0
0.5859892850252975 -0.4565237786369257 0.0
0.6502663902939626 -1.2584807052237641 0.0
0.6698859620438106 0.0780362536568050 0.0
0.6672682957808352 0.0808048335600559 0.0
0.8120385353133227 -1.2038182049432435 0.0
0.1306335304358555 -0.5680913783500187 0.0
0.1087521677276773 -0.4389885222638289 0.0
0.0099918099498390 -0.1039873846234843 0.0
0.8421315007399122 0.0649329822667291 0.0
0.8047562301007767 0.0969219346174519 0.0
0.8330184062705251 -0.0507521068160931 0.0
0.8045934078379193 -0.0670019423874448 0.0
0.3185078098823083 -0.8738403763027494 0.0
0.6337677267456195 -0.1431084731992907 0.0
0.7984521867673366 -1.0720458421156722 0.0
1.3806161462547690 -0.7745809911954395 0.0
0.5292812611590977 0.0852243570694041 0.0
1.4803605739330463 -0.0122687360207848 0.0
1.4842913772424922 -0.0081673118539723 0.0
1.0388168796381627 -0.9753405731296718 0.0
0.7550498927869638 -1.2229743459430469 0.0
1.3239094031665037 -0.1496834529185732 0.0
0.7256756187850382 -1.2298070035345081 0.0
0.0902921182217093 -0.3753591050190634 0.0
1.1746130678996900 -0.0501468275987653 0.0
0.3748205394448313 -0.8932444882478205 0.0
1.6570043712223779 -0.0890977840022020 0.0
0.4124410617555076 -0.0054276060535409 0.0
1.5813608998123829 -0.0860470145808924 0.0
1.5503911774896342 -0.0992813227662225 0.0
-0.0067965963573407 -0.0013946730118450 0.0
-0.0082027695724334 -0.0019228421324042 0.0
0.5347352955287342 0.0430496963612730 0.0
0.3396054476315977 -0.0413293612937094 0.0
-0.0037330543533740 -0.0053645549206179 0.0
-0.0041405217910961 -0.0065789641702445 0.0
0.5570281252294477 -0.0346599578606461 0.0
0.6470612248998712 -0.9293671828877492 0.0
0.5591485153649403 -0.0341175216082000 0.0
0.5533772220647675 -0.0270365973172993 0.0
0.6764810428852797 -0.3337168727308390 0.0
0.7359004150773938 -0.3318337257454498 0.0
0.6468183459597634 -0.8166347422201293 0.0
0.2837142598148640 -0.3836935211206230 0.0
0.3344661994040714 -0.4361354577291798 0.0
-0.0088809637738194 -0.0037634318272783 0.0
-0.0072732204213466 -0.0028646474994484 0.0
1.2691697330936476 -0.4505321360691701 0.0
1.3684886941835661 -0.6544819653737863 0.0
0.9568754474927771 -0.6539543075209160 0.0
0.7331271264881137 -0.4161040133999677 0.0
