# vtk DataFile Version 3.0
LucasCarvalhoTCC Results
ASCII

DATASET POLYDATA
FIELD FieldData 1
TIME 1 1 double
4.0

POINTS 380 float
0.0 2.0 0.0
2.0 2.0 0.0
3.0 2.0 0.0
3.0 1.0 0.0
5.0 1.0 0.0
5.0 0.0 0.0
3.0 0.0 0.0
2.0 0.0 0.0
2.0 1.0 0.0
0.0 1.0 0.0
0.2643114543905713 2.0 0.0
0.5169795502969444 2.0 0.0
0.7585171880292413 2.0 0.0
0.9894145836600268 2.0 0.0
1.210140497826619 2.0 0.0
1.421143008568911 2.0 0.0
1.622850459538253 2.0 0.0
1.815672303789548 2.0 0.0
2.188552664328277 2.0 0.0
2.359329284173903 2.0 0.0
2.514005696104645 2.0 0.0
2.654099788331341 2.0 0.0
2.780986322989182 2.0 0.0
2.895910470953052 2.0 0.0
3.0 1.9 0.0
3.0 1.8 0.0
3.0 1.7 0.0
3.0 1.6 0.0
3.0 1.5 0.0
3.0 1.4 0.0
3.0 1.3 0.0
3.0 1.2 0.0
3.0 1.1 0.0
3.105031513416626 1.0 0.0
3.221094637894669 1.0 0.0
3.349348047908936 1.0 0.0
3.491072094154001 1.0 0.0
3.647681638607018 1.0 0.0
3.820740106959136 1.0 0.0
4.011975186625977 1.0 0.0
4.223295996958671 1.0 0.0
4.456812096249916 1.0 0.0
4.714854728122151 1.0 0.0
5.0 0.7500000000000003 0.0
5.0 0.5000000000000012 0.0
5.0 0.2500000000000011 0.0
4.735688545609428 0.0 0.0
4.483020449703056 0.0 0.0
4.241482811970759 0.0 0.0
4.010585416339973 0.0 0.0
3.789859502173381 0.0 0.0
3.578856991431089 0.0 0.0
3.377149540461747 0.0 0.0
3.184327696210452 0.0 0.0
2.811447335671723 0.0 0.0
2.640670715826097 0.0 0.0
2.485994303895355 0.0 0.0
2.345900211668659 0.0 0.0
2.219013677010818 0.0 0.0
2.104089529046948 0.0 0.0
2.0 0.1 0.0
2.0 0.2 0.0
2.0 0.3 0.0
2.0 0.4 0.0
2.0 0.5 0.0
2.0 0.6 0.0
2.0 0.7 0.0
2.0 0.8 0.0
2.0 0.9 0.0
1.894968486583374 1.0 0.0
1.77890536210533 1.0 0.0
1.650651952091063 1.0 0.0
1.508927905845999 1.0 0.0
1.352318361392982 1.0 0.0
1.179259893040864 1.0 0.0
0.9880248133740233 1.0 0.0
0.7767040030413299 1.0 0.0
0.5431879037500846 1.0 0.0
0.2851452718778493 1.0 0.0
0.0 1.25 0.0
0.0 1.499999999999999 0.0
0.0 1.749999999999999 0.0
2.426045913985508 1.348290599604586 0.0
2.562221387987337 0.6558377602558874 0.0
1.966703786708101 1.492474555319359 0.0
3.033486484223225 0.4973568340887861 0.0
2.371610747520728 0.97814425147097 0.0
2.648098402859118 1.648016516253387 0.0
2.351901597140882 0.3519834837466129 0.0
2.694321138879857 1.061432730999581 0.0
1.441644339445862 1.496646809257773 0.0
3.554831642064292 0.501744031268764 0.0
2.720742750697982 1.350625068836981 0.0
2.282037541072919 0.639419348257894 0.0
2.813390610951134 0.7911761792959446 0.0
2.310700631729327 1.679155452525512 0.0
2.688751528716965 0.3206838402855661 0.0
2.211165393176843 1.213708510063781 0.0
0.9449004170027906 1.496357611130017 0.0
4.05509958299721 0.5036423888699835 0.0
3.025501657200047 0.7528388163714679 0.0
1.714778657098197 1.300039655550584 0.0
1.958264922640818 1.245975101752485 0.0
2.206386339371814 0.8500000000000001 0.0
3.336706349465057 0.704398544338507 0.0
4.529565928894533 0.555233644424822 0.0
0.4704340711054673 1.444766355575178 0.0
2.186983355180128 1.461437746541105 0.0
2.553715879020142 0.8859594914241276 0.0
2.782212276375736 0.5474565156445963 0.0
2.500206140967324 1.148517546040804 0.0
2.803373162317882 1.783880361314082 0.0
2.196626837682118 0.2161196386859174 0.0
1.735623536927746 1.664129737658362 0.0
3.268802735993943 0.3358439745752063 0.0
2.799454045372581 1.51553500056848 0.0
2.18762015375897 0.4992029885790829 0.0
2.813478812948685 1.18678600527921 0.0
2.400994471757771 0.7612313552289275 0.0
2.405444563947088 0.5311203927463914 0.0
2.583195945356847 1.473216966241769 0.0
3.734210872783077 0.7260959952797862 0.0
1.256500988572085 1.265010492624376 0.0
2.938353069321001 0.2909212553641365 0.0
2.061245308362322 1.709221243241415 0.0
2.182240881432738 1.001025052084926 0.0
2.830214026212788 0.9796244234047695 0.0
2.49023894829247 1.787687811117195 0.0
2.50976105170753 0.2123121888828049 0.0
1.194806886820808 1.686899295332255 0.0
3.805193113179192 0.3131007046677451 0.0
2.655039231860651 1.208917360245127 0.0
1.493530449555064 1.231198576616718 0.0
2.345622594939228 1.152685186835846 0.0
2.41380980106708 1.521513100394759 0.0
2.58979513084283 0.4863225267637531 0.0
2.135472648094309 0.7246460081196311 0.0
2.912574128751924 0.660128736186259 0.0
2.866043013605144 1.353074765380587 0.0
0.6928324624395237 1.69170809873467 0.0
4.307167537560476 0.3082919012653306 0.0
2.071506740582853 1.128535871978767 0.0
0.6831902494895832 1.302725441792086 0.0
4.316809750510417 0.6972745582079137 0.0
2.85534466702333 1.667491236848871 0.0
2.141886244104996 0.336139391754002 0.0
1.447743165823209 1.773242752731258 0.0
3.554386585610856 0.224002072703283 0.0
2.96485662756902 0.8593908564801968 0.0
3.240425509636175 0.8099760775594669 0.0
2.088410584923666 1.339747073830609 0.0
3.277530767974837 0.4939020807639749 0.0
3.534313505233912 0.7935179117986669 0.0
2.546683861402325 1.011736398479819 0.0
2.664793655038503 0.758149595673951 0.0
2.7009922066801 0.9086021996324817 0.0
1.844652141496971 1.153158997353228 0.0
2.575910747861113 1.316876286520138 0.0
3.994328863599566 0.7454319923658932 0.0
1.005671136400434 1.254568007634107 0.0
1.722192091537185 1.482888323667831 0.0
2.644751416415203 1.850904811198953 0.0
2.355248583584797 0.1490951888010467 0.0
2.31560379269905 1.25706851182614 0.0
2.129697972466254 0.5864366202645266 0.0
2.417220568140766 0.6397160301847872 0.0
2.867945749403976 1.069821281672812 0.0
3.182303046124178 0.6739667261124369 0.0
4.702774994215813 0.2953677284017739 0.0
0.2972250057841874 1.704632271598226 0.0
2.90043748182062 0.4316738443013928 0.0
2.486081387366873 0.3514585853722887 0.0
2.513918612633127 1.648541414627711 0.0
2.086778258621772 1.563111332603502 0.0
4.025359850459486 0.2638518716814435 0.0
0.9746401495405139 1.736148128318556 0.0
3.116389458098145 0.2933651166122753 0.0
1.885410353788165 1.707062521230272 0.0
2.327134732627959 1.833634230002939 0.0
2.672865267372041 0.1663657699970617 0.0
1.675899428547673 1.15999616666306 0.0
1.858973331615206 1.373382723203102 0.0
2.860266039499884 1.862282581689995 0.0
2.139733960500116 0.1377174183100045 0.0
1.257473476073173 1.479081588926576 0.0
3.731624273377778 0.5208146070195914 0.0
2.115038607594509 0.9238947313642476 0.0
0.2734661728051435 1.270630989444945 0.0
4.726533827194856 0.7293690105550548 0.0
2.699965708650878 1.465007479364728 0.0
2.298365077320068 0.5341069340550768 0.0
2.510583000486659 0.7602856732279889 0.0
3.370667741214912 0.8392397884376295 0.0
3.067541604254986 0.8806352314757129 0.0
2.90073732483139 1.443475210354718 0.0
2.264071206758208 0.9501943312745662 0.0
2.278663096491763 0.7489636980394857 0.0
1.952511813454414 1.110576661474517 0.0
2.744352083917141 0.687787375233183 0.0
1.566252941493004 1.383661493752942 0.0
2.437660520624072 0.8703573012735125 0.0
2.904826075218911 1.261819176983655 0.0
2.305967018083784 1.391390767447104 0.0
2.105729326736999 0.8145314366030645 0.0
2.428967188976762 1.236966721617647 0.0
3.060475488407204 0.1442825789852263 0.0
1.934979199332455 1.852811714602595 0.0
2.095475260770118 0.4348597444661615 0.0
2.914777085426361 1.759093454264707 0.0
2.084827330449114 0.2414252069642749 0.0
2.207128288422204 1.315477221019454 0.0
2.658751426439581 0.5773232450959589 0.0
2.612380011409894 1.114144853433198 0.0
2.897371573983894 1.569769587751228 0.0
0.5001010519014215 1.226918930408543 0.0
4.499898948098578 0.7730810695914568 0.0
2.753086810589338 1.690362801865437 0.0
2.246793053318422 0.3097947118702842 0.0
3.391580469276819 0.5673489147038103 0.0
3.035026488699165 0.6179797538177514 0.0
2.449819864663089 1.055109427275025 0.0
2.27653308928065 1.054384468582349 0.0
2.794675693196835 1.418106589018447 0.0
2.778866980525137 1.083577784614141 0.0
2.244522876020972 0.1116738824400324 0.0
2.755477123979027 1.888326117559968 0.0
2.323887028942199 0.8604475039748537 0.0
2.204900210979926 1.747483509451062 0.0
2.794853185869193 0.2526222191943996 0.0
2.320767315286541 1.530441598510029 0.0
1.550828143561484 1.606851581022188 0.0
2.796593663741882 1.288013595743853 0.0
3.436143660897262 0.3940652474171653 0.0
2.682379445750112 0.4493639922429763 0.0
3.242313228541417 0.154845696987206 0.0
1.75965289115187 1.844031320058407 0.0
1.3642341383496 1.159631408929946 0.0
1.980047380836635 1.36362624976796 0.0
2.070303834520089 1.451946835577872 0.0
2.55866460451515 1.229901920133861 0.0
4.26844523535139 0.499131154814159 0.0
0.7315547646486098 1.500868845185841 0.0
2.716116351489881 1.570657861970705 0.0
2.283245236086922 0.4299499540566049 0.0
4.50573905238033 0.204273435313806 0.0
0.4942609476196695 1.795726564686194 0.0
3.605070352001925 0.644396355247622 0.0
3.171946621948212 0.9019117497969773 0.0
3.40309695214227 0.1789624633199048 0.0
1.59690304785773 1.821037536680094 0.0
4.776800700354217 0.5074282293075529 0.0
0.2231992996457826 1.492571770692447 0.0
1.293020597407515 1.839015256431498 0.0
3.706979402592485 0.1609847435685022 0.0
1.398281395597716 1.351857389185529 0.0
2.880181082677912 0.1378504756446906 0.0
2.119200639021148 1.861833157788504 0.0
2.408646939494887 0.2452196658480275 0.0
2.591353060505113 1.754780334151973 0.0
1.146570081566377 1.160946826906423 0.0
3.853429918433624 0.8390531730935771 0.0
2.920846657438631 1.149071660619678 0.0
2.101132283911678 1.226382957654413 0.0
2.903672483971366 0.7774662795474147 0.0
2.516386521935266 0.571665255016536 0.0
2.475412447847437 1.444413760085193 0.0
2.903041575637174 0.5510905120278109 0.0
3.666476299189054 0.8553176740217776 0.0
1.558137053653031 1.119389262041809 0.0
3.867595456948903 0.1475874639835382 0.0
1.132404543051097 1.852412536016462 0.0
2.635017655944937 0.9730281566682446 0.0
2.436667490139274 1.901171080200935 0.0
2.563332509860726 0.09882891979906516 0.0
2.091598337090247 1.040423151014485 0.0
0.8316881289508771 1.172977685150089 0.0
4.168311871049123 0.827022314849911 0.0
3.648565743761548 0.3681286963687066 0.0
1.355037313653319 1.636865536133179 0.0
2.58412781071005 1.576586299624529 0.0
2.41587218928995 0.4234137003754711 0.0
2.083716468691946 0.6634832154935376 0.0
1.843942294678346 1.256771801786488 0.0
[...]
POINT_DATA 380

VECTORS Velocity float
0.0000000000000000 0.0000000000000000 0.0
0.0000000000000000 0.0000000000000000 0.0
0.0000000000000000 0.0000000000000000 0.0
0.0000000000000000 0.0000000000000000 0.0
0.0000000000000000 0.0000000000000000 0.0
0.9186856955357490 -0.1330556342200878 0.0
0.0000000000000000 0.0000000000000000 0.0
0.0000000000000000 0.0000000000000000 0.0
0.0000000000000000 0.0000000000000000 0.0
0.0000000000000000 0.0000000000000000 0.0
0.0000000000000000 0.0000000000000000 0.0
0.0000000000000000 0.0000000000000000 0.0
0.0000000000000000 0.0000000000000000 0.0
0.0000000000000000 0.0000000000000000 0.0
0.0000000000000000 0.0000000000000000 0.0
0.0000000000000000 0.0000000000000000 0.0
0.0000000000000000 0.0000000000000000 0.0
0.0000000000000000 0.0000000000000000 0.0
0.0000000000000000 0.0000000000000000 0.0
0.0000000000000000 0.0000000000000000 0.0
0.0000000000000000 0.0000000000000000 0.0
0.0000000000000000 0.0000000000000000 0.0
0.0000000000000000 0.0000000000000000 0.0
0.0000000000000000 0.0000000000000000 0.0
0.0000000000000000 0.0000000000000000 0.0
0.0000000000000000 0.0000000000000000 0.0
0.0000000000000000 0.0000000000000000 0.0
0.0000000000000000 0.0000000000000000 0.0
0.0000000000000000 0.0000000000000000 0.0
0.0000000000000000 0.0000000000000000 0.0
0.0000000000000000 0.0000000000000000 0.0
0.0000000000000000 0.0000000000000000 0.0
0.0000000000000000 0.0000000000000000 0.0
0.0000000000000000 0.0000000000000000 0.0
0.0000000000000000 0.0000000000000000 0.0
0.0000000000000000 0.0000000000000000 0.0
0.0000000000000000 0.0000000000000000 0.0
0.0000000000000000 0.0000000000000000 0.0
0.0000000000000000 0.0000000000000000 0.0
0.0000000000000000 0.0000000000000000 0.0
0.0000000000000000 0.0000000000000000 0.0
0.0000000000000000 0.0000000000000000 0.0
0.0000000000000000 0.0000000000000000 0.0
1.1551876295572454 0.3641915564483755 0.0
0.7957332541841144 0.0633817140437237 0.0
1.1395783759792515 -0.2965291919981275 0.0
0.0000000000000000 0.0000000000000000 0.0
0.0000000000000000 0.0000000000000000 0.0
0.0000000000000000 0.0000000000000000 0.0
0.0000000000000000 0.0000000000000000 0.0
0.0000000000000000 0.0000000000000000 0.0
0.0000000000000000 0.0000000000000000 0.0
0.0000000000000000 0.0000000000000000 0.0
0.0000000000000000 0.0000000000000000 0.0
0.0000000000000000 0.0000000000000000 0.0
0.0000000000000000 0.0000000000000000 0.0
0.0000000000000000 0.0000000000000000 0.0
0.0000000000000000 0.0000000000000000 0.0
0.0000000000000000 0.0000000000000000 0.0
0.0000000000000000 0.0000000000000000 0.0
0.0000000000000000 0.0000000000000000 0.0
0.0000000000000000 0.0000000000000000 0.0
0.0000000000000000 0.0000000000000000 0.0
0.0000000000000000 0.0000000000000000 0.0
0.0000000000000000 0.0000000000000000 0.0
0.0000000000000000 0.0000000000000000 0.0
0.0000000000000000 0.0000000000000000 0.0
0.0000000000000000 0.0000000000000000 0.0
0.0000000000000000 0.0000000000000000 0.0
0.0000000000000000 0.0000000000000000 0.0
0.0000000000000000 0.0000000000000000 0.0
0.0000000000000000 0.0000000000000000 0.0
0.0000000000000000 0.0000000000000000 0.0
0.0000000000000000 0.0000000000000000 0.0
0.0000000000000000 0.0000000000000000 0.0
0.0000000000000000 0.0000000000000000 0.0
0.0000000000000000 0.0000000000000000 0.0
0.0000000000000000 0.0000000000000000 0.0
0.0000000000000000 0.0000000000000000 0.0
1.0000000000000000 0.0000000000000000 0.0
1.0000000000000000 0.0000000000000000 0.0
1.0000000000000000 0.0000000000000000 0.0
0.9159398243476715 -0.8183532066047021 0.0
0.8015566130570291 -0.8394679763753374 0.0
1.5143036329065425 -0.2575724938247823 0.0
1.4569407355709911 -0.2531439426014151 0.0
0.5859037428444139 -1.1918043593803003 0.0
0.2742615916537181 -0.2062643028472063 0.0
0.2356736675690782 -0.1973866297859518 0.0
0.5712908727784126 -1.2154000640818567 0.0
1.5743959107105809 -0.0769049836034723 0.0
1.6111780461014726 -0.1191650973831076 0.0
0.2752523753972709 -0.6947627873246374 0.0
0.2539131159638669 -0.6158379285034906 0.0
1.1575049706712270 -0.9942152406489707 0.0
0.7046538486821882 -0.2004777751134125 0.0
0.6655701972434386 -0.1873175697205005 0.0
1.1557132032448290 -0.9031472457952252 0.0
1.6001346719789791 -0.0193438795603638 0.0
1.5975293043605436 -0.0089349031886088 0.0
1.4942979800842402 -0.3535519782645958 0.0
1.5003688006211426 -0.0607004417885491 0.0
1.4378749568177653 -0.3145066050899998 0.0
0.2553971090795684 -0.8372117073595097 0.0
1.5165534979784479 -0.0678122108405512 0.0
1.5836479944283011 0.0096983371728724 0.0
1.5334896770013169 0.0359585130726251 0.0
1.2826741926120195 -0.4966136076874257 0.0
0.6892748336092607 -1.1786823789719896 0.0
1.1807558288114275 -0.4509871660640573 0.0
0.6806326804565508 -1.1886214705152987 0.0
0.0580549837010334 -0.0675342194477650 0.0
0.0480622116462099 -0.0592716178768418 0.0
1.1902708047399826 -0.0820219857130218 0.0
1.1150696398210609 -0.0921409085368770 0.0
0.1121594299485264 -0.3290132970723839 0.0
0.0810283356950781 -0.2679255919071086 0.0
0.1725249497604218 -0.7546662125786123 0.0
0.4908308222081177 -0.9671058504301068 0.0
0.4589025634124029 -0.5559989248666030 0.0
0.5279506301032744 -0.5583885736157338 0.0
1.3924204550352237 -0.0120886090625475 0.0
1.3072988762921676 -0.0808236608299318 0.0
0.8088353391608620 -0.1279846540805249 0.0
0.8763159413913580 -0.1304185048016363 0.0
0.5568812325808226 -0.9943508201917346 0.0
0.6232485373262751 -1.1036863288913759 0.0
0.3022963220878846 -0.0334947028037786 0.0
0.2811466698705459 -0.0380415426976890 0.0
1.2775365547475814 0.0118557282441106 0.0
1.2781734461568388 0.0080096379678927 0.0
0.4639109961845601 -1.0463392962203237 0.0
1.2569156189895880 0.0011191849017423 0.0
0.8766127603778473 -1.0895954920264739 0.0
0.7835508705100799 -0.4730562763820659 0.0
0.7958147058741375 -0.5130840652329802 0.0
0.0266258980034359 -0.3666518269182099 0.0
1.5047218140627723 -0.5483948676553506 0.0
0.0640040130296711 -0.3956105147068811 0.0
1.3446520634572245 0.0064757765033750 0.0
1.3450205242196531 0.0148937235949426 0.0
1.1006104953788054 -0.7466840748385886 0.0
1.3761581829462608 -0.0383939378851933 0.0
1.3735682340541984 -0.0565456977277045 0.0
0.0491145766812642 -0.1161582231160626 0.0
0.0426512877565794 -0.0995918030009387 0.0
0.7916752892912390 -0.0088667186578787 0.0
0.7751944088530507 -0.0270614455453463 0.0
1.2418593981730768 -0.5696906033278064 0.0
1.2442806709670451 -0.1010761889637689 0.0
1.4470669007913899 -0.5581342425402912 0.0
1.5353655150156986 -0.0928103316794013 0.0
1.2082648762250470 -0.0644286974854218 0.0
0.6574609185478213 -1.2431789843214005 0.0
0.9377682531037722 -0.9600500073012255 0.0
0.8024368394155807 -1.2336173354591948 0.0
1.0735835657910600 -0.0585095737849452 0.0
0.5923339065688313 -0.8921704196659895 0.0
1.0658649202890860 -0.0516185535350337 0.0
1.0676619155069953 -0.0525109653644344 0.0
1.5789441700368603 -0.0678227424632962 0.0
0.0953747901908649 -0.0386808075836100 0.0
0.0848874709185873 -0.0360274642888028 0.0
1.0428046701279632 -0.9082060642390292 0.0
0.0422945009547644 -0.1984652406895755 0.0
0.4857456945779324 -0.7418238221270708 0.0
0.2448510152676821 -0.7854609096867426 0.0
1.5655168974736215 -0.1629418035044039 0.0
1.2290136315025146 -0.2189317423835285 0.0
1.2102288396865728 -0.2003413816657600 0.0
1.1872491736352968 -0.2678711277414436 0.0
0.4138666897120366 -0.2235971302238082 0.0
0.4498677238400279 -0.2185446332732513 0.0
1.2688293425698298 -0.2942800619565954 0.0
1.0451425952780857 -0.0264789700045828 0.0
1.0431092205246055 -0.0273219557584207 0.0
0.9387415216909201 -0.1123192248565445 0.0
1.0122687672340409 -0.1171525864603146 0.0
0.2731571974958553 -0.0521567678951355 0.0
0.2621184950234444 -0.0486748549666708 0.0
0.8360600436103280 -0.0191047861846113 0.0
1.5819465493902920 -0.1517277592463537 0.0
0.0132585498443602 -0.0179828524967449 0.0
0.0104871413259341 -0.0153789923126412 0.0
1.5372729252739639 -0.0976036637996030 0.0
1.5697993041922023 -0.1283230991632290 0.0
0.1390408176122536 -0.4963810713391157 0.0
1.0960040468495358 0.2306113481165142 0.0
1.0936744257195667 0.2310733813084884 0.0
0.2783312244396874 -0.5120819595386737 0.0
0.2349143159795548 -0.4449439740047144 0.0
0.6699068793119402 -1.0384465687648501 0.0
0.9311153370190128 -0.0546518631323772 0.0
0.8789349703022006 -0.1776757683809063 0.0
0.0367964731317580 -0.1872404125631091 0.0
0.4696424050945280 -1.1053895638316682 0.0
0.2641473349632150 -0.8359329991278375 0.0
0.7817651990497155 -0.1242146634147569 0.0
1.1504060198147634 -0.8028831716219189 0.0
1.5612409800209202 -0.0498613736876495 0.0
0.5731451685902761 -1.1426542816664573 0.0
0.0298540971631805 -0.3208816367358959 0.0
1.1181602990693289 -0.6733447064933161 0.0
0.0683912129243284 -0.2975620650594574 0.0
0.8131942451319061 -1.0511884277865895 0.0
0.4065371644098516 -0.0212536493019665 0.0
0.4313249149874406 -0.0190939705513844 0.0
0.0394295232409200 -0.0958412387886646 0.0
0.0184861832995600 -0.0318922023061047 0.0
0.0150080610250162 -0.0268226816178842 0.0
1.2872821242439387 -0.7656500200766678 0.0
0.9779208883438788 -0.6490535865951766 0.0
0.5924019261564165 -1.1888240891195696 0.0
0.0271387504980162 -0.1195964515481069 0.0
0.8660019833756452 0.1645777828727837 0.0
0.8387073869748546 0.1312665981703088 0.0
0.1448128569348179 -0.1701675444956140 0.0
0.1235818865820942 -0.1521614299261471 0.0
1.6431763524591618 -0.1218913064722404 0.0
1.6049867636709805 -0.3193324151392632 0.0
0.6702102892372845 -1.2357164137953580 0.0
0.7081219518476041 -1.1360011595849271 0.0
0.1402543639548340 -0.4303602568579245 0.0
0.4208486541523519 -1.0717296185586607 0.0
0.0313926188464949 -0.0250772416848153 0.0
0.0366331379471993 -0.0280883735583079 0.0
0.4547475019847383 -1.0604410497569636 0.0
0.6500985728811407 -0.1372468089219692 0.0
0.6092707699556899 -0.1221945576842896 0.0
0.9965947483648773 -0.4373458590200229 0.0
1.3583689513801751 -0.0303422529256788 0.0
0.1586852536538889 -0.6031055709428391 0.0
1.3024887936235998 -0.0654183498729514 0.0
0.9443116396850552 -0.4112930296006250 0.0
0.5014709219746245 -0.0333051696536044 0.0
0.5281340904269261 -0.0361147771702062 0.0
0.8944295420893986 -0.0194708656186662 0.0
1.5410706979497828 -0.3445724839750455 0.0
1.4722892465777608 -0.4077452266864873 0.0
0.5910772292406414 -1.0642109021043260 0.0
1.6000785147446113 -0.0535507716683349 0.0
1.5899126046757217 -0.0450301393740366 0.0
0.2122846373095048 -0.3050746653661566 0.0
0.1805909890721324 -0.2768736963077460 0.0
0.7799404277424783 -0.1433747129416308 0.0
0.8008207434413459 -0.1598521207112796 0.0
1.5605757664717943 -0.0772000943140344 0.0
0.5607193830855111 -0.0562057710114778 0.0
0.6312271905951129 -0.0792774184667606 0.0
0.6583723384370548 -0.0805398912198239 0.0
1.2611504888635234 0.0575106784937435 0.0
1.2108937835335061 0.0466593385392130 0.0
0.6384329646748013 0.0332962938924096 0.0
0.6387035692361243 0.0302721450369261 0.0
1.4569697975628895 -0.0518335472644681 0.0
0.3110992461686187 -0.0554607158649840 0.0
0.3313821988324524 -0.0599244741209871 0.0
0.2265383581277565 -0.1153522651151219 0.0
0.2493756452145901 -0.1187035243414367 0.0
0.7326720162545914 0.0587318862621419 0.0
0.7341023511597977 0.1057805881213417 0.0
0.0427915458887385 -0.3539218274033081 0.0
1.3145533785993566 -0.7037644242397971 0.0
1.3466776109207363 -0.7321722811069274 0.0
0.6751621307023821 -0.6713599357158978 0.0
0.7759864994071530 -0.6075293795144637 0.0
1.4321515627147432 -0.4216670098133673 0.0
0.6076570256843910 0.0249581305737657 0.0
0.6294476090184622 -0.0160596040218080 0.0
0.5365015052585416 -0.1092607058442715 0.0
0.5389816203075525 -0.1068293748494089 0.0
0.6848306512444181 -1.2596970715592266 0.0
0.0945236640246662 -0.0251743568454307 0.0
0.0885385087850647 -0.0259888294321273 0.0
0.5685322275556790 -0.7180106523125735 0.0
0.6719645159804437 -0.0978672282562799 0.0
0.6705402974966286 -0.1057203308823170 0.0
1.3074785545184413 -0.1406757904665199 0.0
1.3138349309381556 -0.1132033223398803 0.0
0.4601952374597280 -0.3307146973236922 0.0
0.3964129267071563 -0.3269787909082523 0.0
0.0020593210561782 -0.1574661266597942 0.0
1.3679552725047666 -0.1427545663956858 0.0
0.6064037361964826 -0.7868082314151712 0.0
0.1153333257731601 -0.4217008955291495 0.0
0.4363885470844457 -0.7392976952159042 0.0
0.9771565120496221 -0.9572655396211617 0.0
0.9007736007538697 -1.1462743260377373 0.0
1.4971556112975504 -0.0656011594661555 0.0
1.4927237755524869 -0.0967078277099417 0.0
0.6509550944272388 -1.2240547883757997 0.0
1.0472166732322392 -0.2759701791572878 0.0
0.9941080044409922 -0.2242144175223160 0.0
0.5069725877607112 -0.1681029252041877 0.0
0.4854096607067454 -0.1731469708580491 0.0
1.5606862559327062 -0.1084658613194459 0.0
0.9940672291165447 -1.0984281593363108 0.0
0.4173292839695056 -1.0707510535896427 0.0
1.2130197230484228 -0.1680079943126228 0.0
1.5661848107629872 -0.0921438899306738 0.0
1.5756741939222907 -0.0973780657268483 0.0
1.2882417880240178 -0.1701256895101017 0.0
0.0954335395293664 -0.0113294627513000 0.0
0.1042994090296129 -0.0096643932657967 0.0
0.4209219784384066 0.0684198872890672 0.0
1.3630280414649865 -0.1373808929363720 0.0
1.3209663832707308 0.0362569843067057 0.0
0.4410857896361680 -0.9123704012870637 0.0
0.1075406079404813 -0.2287799652075553 0.0
0.0861649714954652 -0.1924804959826160 0.0
0.1485412896998230 -0.0850226766038320 0.0
0.1301210943279592 -0.0784279005144508 0.0
0.3713584654164384 -0.6541393531734612 0.0
0.0083253921495953 -0.1162936396412262 0.0
0.9179423670956091 -0.8796341570640970 0.0
0.5211396014389947 0.0366125685520290 0.0
0.5041070567625524 0.0190443765951263 0.0
1.4811372232845770 -0.0482475972023385 0.0
1.4811198432725858 -0.0598566679086937 0.0
0.9490507501391773 -1.0774804646779881 0.0
1.6039251948875477 -0.1664803630556287 0.0
0.4298499214936706 -0.0485248114223661 0.0
0.0170907418500965 -0.0402859720994221 0.0
0.0119653240288647 -0.0339510162210718 0.0
0.3752648461215229 -0.8155274135967934 0.0
0.0192168713585206 -0.1060385727878063 0.0
0.7304589174525230 -0.9510456542558188 0.0
1.4522792892971463 -0.1387292516653524 0.0
0.6435327853301307 -0.4279260410016454 0.0
0.5966970946913751 -0.4433543101704258 0.0
0.6362021368079037 -1.2194160578388440 0.0
0.6699300770996649 0.0781156608802552 0.0
0.6671939536289782 0.0808167247979099 0.0
0.7952494033384513 -1.1697696641103954 0.0
0.1288910003815433 -0.5983327054724505 0.0
0.1090999376345569 -0.4669016523129837 0.0
0.0089918201202728 -0.1126794860512403 0.0
0.8421374268741770 0.0649292196839679 0.0
0.8047740215725954 0.0969046160299590 0.0
0.8330119265774173 -0.0507570854784387 0.0
0.8045706499535855 -0.0670244780559545 0.0
0.3168749109239277 -0.8841094338141275 0.0
0.6403682392743926 -0.1480101431745352 0.0
0.7819801933705013 -1.0331247429911929 0.0
1.3694667513329875 -0.7763968105247395 0.0
0.5317400682127402 0.0848568706730365 0.0
1.4804184024990090 -0.0120861911749275 0.0
1.4842374171359793 -0.0080851885454912 0.0
1.0387038308261303 -0.9969972845324520 0.0
0.7411352935288947 -1.1899908137906043 0.0
1.3253533221582934 -0.1539573720279723 0.0
0.7141917640803433 -1.2114095308022419 0.0
0.0840327313348157 -0.3942266557936770 0.0
1.1786884186977211 -0.0535869748994000 0.0
0.3742136181127059 -0.9214780948159038 0.0
1.6550473345300110 -0.0905332706249155 0.0
0.4117569138371743 -0.0052694736262839 0.0
1.5812906044950668 -0.0860981319206098 0.0
1.5503788934864826 -0.0992809284251162 0.0
-0.0052743542896906 -0.0011276543730160 0.0
-0.0053262398932716 -0.0013529674518505 0.0
0.5346805916484300 0.0428411006088620 0.0
0.3418465723511567 -0.0435881801661112 0.0
-0.0025647713160935 -0.0058733762810186 0.0
-0.0021666181120338 -0.0067410028463569 0.0
0.5566394816011230 -0.0345981221818308 0.0
0.6388439196795087 -0.9021858291065907 0.0
0.5591417475855855 -0.0341114470459353 0.0
0.5533035266410015 -0.0270526392687274 0.0
0.6860621316577519 -0.3194200820103549 0.0
0.7378977660198781 -0.3162854879310169 0.0
0.6400766100800772 -0.7861522471990618 0.0
0.2993784584585287 -0.3909901945938529 0.0
0.3467873066356848 -0.4336333997748134 0.0
-0.0040434003528053 -0.0030697176192190 0.0
-0.0044379659412616 -0.0026153048933447 0.0
1.2822745402381741 -0.4626109925887015 0.0
1.3555235567280726 -0.6524851995894979 0.0
0.9452361861321140 -0.6300357583542147 0.0
0.7441345352600706 -0.4281788441994404 0.0
