# vtk DataFile Version 3.0
LucasCarvalhoTCC Results
ASCII

DATASET POLYDATA
FIELD FieldData 1
TIME 1 1 double
3.5

POINTS 380 float
0.0 2.0 0.0
2.0 2.0 0.0
3.0 2.0 0.0
3.0 1.0 0.0
5.0 1.0 0.0
5.0 0.0 0.0
3.0 0.0 0.0
2.0 0.0 0.0
2.0 1.0 0.0
0.0 1.0 0.0
0.2643114543905713 2.0 0.0
0.5169795502969444 2.0 0.0
0.7585171880292413 2.0 0.0
0.9894145836600268 2.0 0.0
1.210140497826619 2.0 0.0
1.421143008568911 2.0 0.0
1.622850459538253 2.0 0.0
1.815672303789548 2.0 0.0
2.188552664328277 2.0 0.0
2.359329284173903 2.0 0.0
2.514005696104645 2.0 0.0
2.654099788331341 2.0 0.0
2.780986322989182 2.0 0.0
2.895910470953052 2.0 0.0
3.0 1.9 0.0
3.0 1.8 0.0
3.0 1.7 0.0
3.0 1.6 0.0
3.0 1.5 0.0
3.0 1.4 0.0
3.0 1.3 0.0
3.0 1.2 0.0
3.0 1.1 0.0
3.105031513416626 1.0 0.0
3.221094637894669 1.0 0.0
3.349348047908936 1.0 0.0
3.491072094154001 1.0 0.0
3.647681638607018 1.0 0.0
3.820740106959136 1.0 0.0
4.011975186625977 1.0 0.0
4.223295996958671 1.0 0.0
4.456812096249916 1.0 0.0
4.714854728122151 1.0 0.0
5.0 0.7500000000000003 0.0
5.0 0.5000000000000012 0.0
5.0 0.2500000000000011 0.0
4.735688545609428 0.0 0.0
4.483020449703056 0.0 0.0
4.241482811970759 0.0 0.0
4.010585416339973 0.0 0.0
3.789859502173381 0.0 0.0
3.578856991431089 0.0 0.0
3.377149540461747 0.0 0.0
3.184327696210452 0.0 0.0
2.811447335671723 0.0 0.0
2.640670715826097 0.0 0.0
2.485994303895355 0.0 0.0
2.345900211668659 0.0 0.0
2.219013677010818 0.0 0.0
2.104089529046948 0.0 0.0
2.0 0.1 0.0
2.0 0.2 0.0
2.0 0.3 0.0
2.0 0.4 0.0
2.0 0.5 0.0
2.0 0.6 0.0
2.0 0.7 0.0
2.0 0.8 0.0
2.0 0.9 0.0
1.894968486583374 1.0 0.0
1.77890536210533 1.0 0.0
1.650651952091063 1.0 0.0
1.508927905845999 1.0 0.0
1.352318361392982 1.0 0.0
1.179259893040864 1.0 0.0
0.9880248133740233 1.0 0.0
0.7767040030413299 1.0 0.0
0.5431879037500846 1.0 0.0
0.2851452718778493 1.0 0.0
0.0 1.25 0.0
0.0 1.499999999999999 0.0
0.0 1.749999999999999 0.0
2.426045913985508 1.348290599604586 0.0
2.562221387987337 0.6558377602558874 0.0
1.966703786708101 1.492474555319359 0.0
3.033486484223225 0.4973568340887861 0.0
2.371610747520728 0.97814425147097 0.0
2.648098402859118 1.648016516253387 0.0
2.351901597140882 0.3519834837466129 0.0
2.694321138879857 1.061432730999581 0.0
1.441644339445862 1.496646809257773 0.0
3.554831642064292 0.501744031268764 0.0
2.720742750697982 1.350625068836981 0.0
2.282037541072919 0.639419348257894 0.0
2.813390610951134 0.7911761792959446 0.0
2.310700631729327 1.679155452525512 0.0
2.688751528716965 0.3206838402855661 0.0
2.211165393176843 1.213708510063781 0.0
0.9449004170027906 1.496357611130017 0.0
4.05509958299721 0.5036423888699835 0.0
3.025501657200047 0.7528388163714679 0.0
1.714778657098197 1.300039655550584 0.0
1.958264922640818 1.245975101752485 0.0
2.206386339371814 0.8500000000000001 0.0
3.336706349465057 0.704398544338507 0.0
4.529565928894533 0.555233644424822 0.0
0.4704340711054673 1.444766355575178 0.0
2.186983355180128 1.461437746541105 0.0
2.553715879020142 0.8859594914241276 0.0
2.782212276375736 0.5474565156445963 0.0
2.500206140967324 1.148517546040804 0.0
2.803373162317882 1.783880361314082 0.0
2.196626837682118 0.2161196386859174 0.0
1.735623536927746 1.664129737658362 0.0
3.268802735993943 0.3358439745752063 0.0
2.799454045372581 1.51553500056848 0.0
2.18762015375897 0.4992029885790829 0.0
2.813478812948685 1.18678600527921 0.0
2.400994471757771 0.7612313552289275 0.0
2.405444563947088 0.5311203927463914 0.0
2.583195945356847 1.473216966241769 0.0
3.734210872783077 0.7260959952797862 0.0
1.256500988572085 1.265010492624376 0.0
2.938353069321001 0.2909212553641365 0.0
2.061245308362322 1.709221243241415 0.0
2.182240881432738 1.001025052084926 0.0
2.830214026212788 0.9796244234047695 0.0
2.49023894829247 1.787687811117195 0.0
2.50976105170753 0.2123121888828049 0.0
1.194806886820808 1.686899295332255 0.0
3.805193113179192 0.3131007046677451 0.0
2.655039231860651 1.208917360245127 0.0
1.493530449555064 1.231198576616718 0.0
2.345622594939228 1.152685186835846 0.0
2.41380980106708 1.521513100394759 0.0
2.58979513084283 0.4863225267637531 0.0
2.135472648094309 0.7246460081196311 0.0
2.912574128751924 0.660128736186259 0.0
2.866043013605144 1.353074765380587 0.0
0.6928324624395237 1.69170809873467 0.0
4.307167537560476 0.3082919012653306 0.0
2.071506740582853 1.128535871978767 0.0
0.6831902494895832 1.302725441792086 0.0
4.316809750510417 0.6972745582079137 0.0
2.85534466702333 1.667491236848871 0.0
2.141886244104996 0.336139391754002 0.0
1.447743165823209 1.773242752731258 0.0
3.554386585610856 0.224002072703283 0.0
2.96485662756902 0.8593908564801968 0.0
3.240425509636175 0.8099760775594669 0.0
2.088410584923666 1.339747073830609 0.0
3.277530767974837 0.4939020807639749 0.0
3.534313505233912 0.7935179117986669 0.0
2.546683861402325 1.011736398479819 0.0
2.664793655038503 0.758149595673951 0.0
2.7009922066801 0.9086021996324817 0.0
1.844652141496971 1.153158997353228 0.0
2.575910747861113 1.316876286520138 0.0
3.994328863599566 0.7454319923658932 0.0
1.005671136400434 1.254568007634107 0.0
1.722192091537185 1.482888323667831 0.0
2.644751416415203 1.850904811198953 0.0
2.355248583584797 0.1490951888010467 0.0
2.31560379269905 1.25706851182614 0.0
2.129697972466254 0.5864366202645266 0.0
2.417220568140766 0.6397160301847872 0.0
2.867945749403976 1.069821281672812 0.0
3.182303046124178 0.6739667261124369 0.0
4.702774994215813 0.2953677284017739 0.0
0.2972250057841874 1.704632271598226 0.0
2.90043748182062 0.4316738443013928 0.0
2.486081387366873 0.3514585853722887 0.0
2.513918612633127 1.648541414627711 0.0
2.086778258621772 1.563111332603502 0.0
4.025359850459486 0.2638518716814435 0.0
0.9746401495405139 1.736148128318556 0.0
3.116389458098145 0.2933651166122753 0.0
1.885410353788165 1.707062521230272 0.0
2.327134732627959 1.833634230002939 0.0
2.672865267372041 0.1663657699970617 0.0
1.675899428547673 1.15999616666306 0.0
1.858973331615206 1.373382723203102 0.0
2.860266039499884 1.862282581689995 0.0
2.139733960500116 0.1377174183100045 0.0
1.257473476073173 1.479081588926576 0.0
3.731624273377778 0.5208146070195914 0.0
2.115038607594509 0.9238947313642476 0.0
0.2734661728051435 1.270630989444945 0.0
4.726533827194856 0.7293690105550548 0.0
2.699965708650878 1.465007479364728 0.0
2.298365077320068 0.5341069340550768 0.0
2.510583000486659 0.7602856732279889 0.0
3.370667741214912 0.8392397884376295 0.0
3.067541604254986 0.8806352314757129 0.0
2.90073732483139 1.443475210354718 0.0
2.264071206758208 0.9501943312745662 0.0
2.278663096491763 0.7489636980394857 0.0
1.952511813454414 1.110576661474517 0.0
2.744352083917141 0.687787375233183 0.0
1.566252941493004 1.383661493752942 0.0
2.437660520624072 0.8703573012735125 0.0
2.904826075218911 1.261819176983655 0.0
2.305967018083784 1.391390767447104 0.0
2.105729326736999 0.8145314366030645 0.0
2.428967188976762 1.236966721617647 0.0
3.060475488407204 0.1442825789852263 0.0
1.934979199332455 1.852811714602595 0.0
2.095475260770118 0.4348597444661615 0.0
2.914777085426361 1.759093454264707 0.0
2.084827330449114 0.2414252069642749 0.0
2.207128288422204 1.315477221019454 0.0
2.658751426439581 0.5773232450959589 0.0
2.612380011409894 1.114144853433198 0.0
2.897371573983894 1.569769587751228 0.0
0.5001010519014215 1.226918930408543 0.0
4.499898948098578 0.7730810695914568 0.0
2.753086810589338 1.690362801865437 0.0
2.246793053318422 0.3097947118702842 0.0
3.391580469276819 0.5673489147038103 0.0
3.035026488699165 0.6179797538177514 0.0
2.449819864663089 1.055109427275025 0.0
2.27653308928065 1.054384468582349 0.0
2.794675693196835 1.418106589018447 0.0
2.778866980525137 1.083577784614141 0.0
2.244522876020972 0.1116738824400324 0.0
2.755477123979027 1.888326117559968 0.0
2.323887028942199 0.8604475039748537 0.0
2.204900210979926 1.747483509451062 0.0
2.794853185869193 0.2526222191943996 0.0
2.320767315286541 1.530441598510029 0.0
1.550828143561484 1.606851581022188 0.0
2.796593663741882 1.288013595743853 0.0
3.436143660897262 0.3940652474171653 0.0
2.682379445750112 0.4493639922429763 0.0
3.242313228541417 0.154845696987206 0.0
1.75965289115187 1.844031320058407 0.0
1.3642341383496 1.159631408929946 0.0
1.980047380836635 1.36362624976796 0.0
2.070303834520089 1.451946835577872 0.0
2.55866460451515 1.229901920133861 0.0
4.26844523535139 0.499131154814159 0.0
0.7315547646486098 1.500868845185841 0.0
2.716116351489881 1.570657861970705 0.0
2.283245236086922 0.4299499540566049 0.0
4.50573905238033 0.204273435313806 0.0
0.4942609476196695 1.795726564686194 0.0
3.605070352001925 0.644396355247622 0.0
3.171946621948212 0.9019117497969773 0.0
3.40309695214227 0.1789624633199048 0.0
1.59690304785773 1.821037536680094 0.0
4.776800700354217 0.5074282293075529 0.0
0.2231992996457826 1.492571770692447 0.0
1.293020597407515 1.839015256431498 0.0
3.706979402592485 0.1609847435685022 0.0
1.398281395597716 1.351857389185529 0.0
2.880181082677912 0.1378504756446906 0.0
2.119200639021148 1.861833157788504 0.0
2.408646939494887 0.2452196658480275 0.0
2.591353060505113 1.754780334151973 0.0
1.146570081566377 1.160946826906423 0.0
3.853429918433624 0.8390531730935771 0.0
2.920846657438631 1.149071660619678 0.0
2.101132283911678 1.226382957654413 0.0
2.903672483971366 0.7774662795474147 0.0
2.516386521935266 0.571665255016536 0.0
2.475412447847437 1.444413760085193 0.0
2.903041575637174 0.5510905120278109 0.0
3.666476299189054 0.8553176740217776 0.0
1.558137053653031 1.119389262041809 0.0
3.867595456948903 0.1475874639835382 0.0
1.132404543051097 1.852412536016462 0.0
2.635017655944937 0.9730281566682446 0.0
2.436667490139274 1.901171080200935 0.0
2.563332509860726 0.09882891979906516 0.0
2.091598337090247 1.040423151014485 0.0
0.8316881289508771 1.172977685150089 0.0
4.168311871049123 0.827022314849911 0.0
3.648565743761548 0.3681286963687066 0.0
1.355037313653319 1.636865536133179 0.0
2.58412781071005 1.576586299624529 0.0
2.41587218928995 0.4234137003754711 0.0
2.083716468691946 0.6634832154935376 0.0
1.843942294678346 1.256771801786488 0.0
[...]
POINT_DATA 380

VECTORS Velocity float
0.0000000000000000 0.0000000000000000 0.0
0.0000000000000000 0.0000000000000000 0.0
0.0000000000000000 0.0000000000000000 0.0
0.0000000000000000 0.0000000000000000 0.0
0.0000000000000000 0.0000000000000000 0.0
0.9186861579961449 -0.1330528173489610 0.0
0.0000000000000000 0.0000000000000000 0.0
0.0000000000000000 0.0000000000000000 0.0
0.0000000000000000 0.0000000000000000 0.0
0.0000000000000000 0.0000000000000000 0.0
0.0000000000000000 0.0000000000000000 0.0
0.0000000000000000 0.0000000000000000 0.0
0.0000000000000000 0.0000000000000000 0.0
0.0000000000000000 0.0000000000000000 0.0
0.0000000000000000 0.0000000000000000 0.0
0.0000000000000000 0.0000000000000000 0.0
0.0000000000000000 0.0000000000000000 0.0
0.0000000000000000 0.0000000000000000 0.0
0.0000000000000000 0.0000000000000000 0.0
0.0000000000000000 0.0000000000000000 0.0
0.0000000000000000 0.0000000000000000 0.0
0.0000000000000000 0.0000000000000000 0.0
0.0000000000000000 0.0000000000000000 0.0
0.0000000000000000 0.0000000000000000 0.0
0.0000000000000000 0.0000000000000000 0.0
0.0000000000000000 0.0000000000000000 0.0
0.0000000000000000 0.0000000000000000 0.0
0.0000000000000000 0.0000000000000000 0.0
0.0000000000000000 0.0000000000000000 0.0
0.0000000000000000 0.0000000000000000 0.0
0.0000000000000000 0.0000000000000000 0.0
0.0000000000000000 0.0000000000000000 0.0
0.0000000000000000 0.0000000000000000 0.0
0.0000000000000000 0.0000000000000000 0.0
0.0000000000000000 0.0000000000000000 0.0
0.0000000000000000 0.0000000000000000 0.0
0.0000000000000000 0.0000000000000000 0.0
0.0000000000000000 0.0000000000000000 0.0
0.0000000000000000 0.0000000000000000 0.0
0.0000000000000000 0.0000000000000000 0.0
0.0000000000000000 0.0000000000000000 0.0
0.0000000000000000 0.0000000000000000 0.0
0.0000000000000000 0.0000000000000000 0.0
1.1551987648831092 0.3641478394913931 0.0
0.7957335149194941 0.0633010995136176 0.0
1.1395702842910453 -0.2965757729962244 0.0
0.0000000000000000 0.0000000000000000 0.0
0.0000000000000000 0.0000000000000000 0.0
0.0000000000000000 0.0000000000000000 0.0
0.0000000000000000 0.0000000000000000 0.0
0.0000000000000000 0.0000000000000000 0.0
0.0000000000000000 0.0000000000000000 0.0
0.0000000000000000 0.0000000000000000 0.0
0.0000000000000000 0.0000000000000000 0.0
0.0000000000000000 0.0000000000000000 0.0
0.0000000000000000 0.0000000000000000 0.0
0.0000000000000000 0.0000000000000000 0.0
0.0000000000000000 0.0000000000000000 0.0
0.0000000000000000 0.0000000000000000 0.0
0.0000000000000000 0.0000000000000000 0.0
0.0000000000000000 0.0000000000000000 0.0
0.0000000000000000 0.0000000000000000 0.0
0.0000000000000000 0.0000000000000000 0.0
0.0000000000000000 0.0000000000000000 0.0
0.0000000000000000 0.0000000000000000 0.0
0.0000000000000000 0.0000000000000000 0.0
0.0000000000000000 0.0000000000000000 0.0
0.0000000000000000 0.0000000000000000 0.0
0.0000000000000000 0.0000000000000000 0.0
0.0000000000000000 0.0000000000000000 0.0
0.0000000000000000 0.0000000000000000 0.0
0.0000000000000000 0.0000000000000000 0.0
0.0000000000000000 0.0000000000000000 0.0
0.0000000000000000 0.0000000000000000 0.0
0.0000000000000000 0.0000000000000000 0.0
0.0000000000000000 0.0000000000000000 0.0
0.0000000000000000 0.0000000000000000 0.0
0.0000000000000000 0.0000000000000000 0.0
0.0000000000000000 0.0000000000000000 0.0
1.0000000000000000 0.0000000000000000 0.0
1.0000000000000000 0.0000000000000000 0.0
1.0000000000000000 0.0000000000000000 0.0
0.9068733634331941 -0.8037688402839487 0.0
0.7945527973007310 -0.8222412961434656 0.0
1.5102739016438693 -0.2586303710620202 0.0
1.4528790724553924 -0.2543968862156838 0.0
0.5827714582843941 -1.1837966721849855 0.0
0.2836934956317729 -0.2058041746430072 0.0
0.2460467298429673 -0.1989279108718711 0.0
0.5680976953811968 -1.2100370109631027 0.0
1.5742211495480654 -0.0775150262487175 0.0
1.6109335994573228 -0.1184383214453057 0.0
0.2762799791052039 -0.6980584497182520 0.0
0.2551657572582631 -0.6248690219718935 0.0
1.1515232047315038 -0.9972885321291121 0.0
0.7060290875603961 -0.1964832553492462 0.0
0.6698074459399710 -0.1837515196676426 0.0
1.1517248503067234 -0.9053547618422764 0.0
1.6001187339657896 -0.0190735989187238 0.0
1.5975270040264706 -0.0086879647018305 0.0
1.4941744510940991 -0.3579450109852798 0.0
1.5007017250305186 -0.0633758075596726 0.0
1.4403402287779254 -0.3192387082480995 0.0
0.2535195551220829 -0.8518459824641064 0.0
1.5154266311917841 -0.0686645083545680 0.0
1.5836742830594368 0.0096638052371872 0.0
1.5334965320808129 0.0359367130858520 0.0
1.2749544776032538 -0.4935216994231570 0.0
0.6821961206918504 -1.1564734016097515 0.0
1.1734371042187592 -0.4460979784002847 0.0
0.6746247255908027 -1.1660529329081770 0.0
0.0642097999870529 -0.0687383995177699 0.0
0.0533881552454410 -0.0615813015327828 0.0
1.1894061164570693 -0.0824611805161845 0.0
1.1164551612597584 -0.0915651864492675 0.0
0.1168473009897228 -0.3377558821385841 0.0
0.0850780115007333 -0.2781335702863877 0.0
0.1711209192547271 -0.7677058702553985 0.0
0.4872322766149801 -0.9599860234273058 0.0
0.4627904147271022 -0.5524325489062425 0.0
0.5291150593448463 -0.5503943885702380 0.0
1.3919095836365485 -0.0117368327077337 0.0
1.3069888716878655 -0.0808123241583583 0.0
0.8106700528640340 -0.1271067338029306 0.0
0.8754355371017900 -0.1293053573249554 0.0
0.5591968928456786 -1.0089759195581269 0.0
0.6228682744006797 -1.1172242321268293 0.0
0.3085201497201696 -0.0321502973478531 0.0
0.2888128322233605 -0.0368016088156464 0.0
1.2778416410746558 0.0119959279836275 0.0
1.2785074307617128 0.0084116711189436 0.0
0.4612341365135796 -1.0363815891741477 0.0
1.2569823609823429 0.0003857004433797 0.0
0.8705821396795996 -1.0808579998936103 0.0
0.7811166642605313 -0.4630221772713582 0.0
0.7953126115673258 -0.5022778608542044 0.0
0.0232813729451172 -0.3796859695758781 0.0
1.4992977408648613 -0.5521527956068317 0.0
0.0635771051721892 -0.4075234191492501 0.0
1.3446282724170255 0.0065029989345165 0.0
1.3449357632674404 0.0149016864586310 0.0
1.1074418453163029 -0.7575236926126221 0.0
1.3761792378447857 -0.0383800281993478 0.0
1.3736551034404916 -0.0565424461558587 0.0
0.0545465713017736 -0.1197328787941895 0.0
0.0472867484305267 -0.1043839995203867 0.0
0.7918429020263907 -0.0090327497676595 0.0
0.7760384281050735 -0.0267037221441068 0.0
1.2460348627819431 -0.5775116608619868 0.0
1.2440898745666651 -0.1021891522178914 0.0
1.4422479936355548 -0.5610848072539487 0.0
1.5346530151222457 -0.0926122815543890 0.0
1.2073553413736355 -0.0641487252424078 0.0
0.6513196938266780 -1.2199779727075042 0.0
0.9278036624736289 -0.9462584402552640 0.0
0.7971818207463500 -1.2256762525613425 0.0
1.0785618832785364 -0.0605097638035042 0.0
0.5876622324972317 -0.8770460793326721 0.0
1.0658315563660758 -0.0514776948622013 0.0
1.0675518439658884 -0.0523347081980925 0.0
1.5777252229352541 -0.0695877258299201 0.0
0.0997664582395435 -0.0391093719923563 0.0
0.0895669927895322 -0.0368064181157459 0.0
1.0343513822448014 -0.9006180094080183 0.0
0.0430493300921493 -0.2074458135079270 0.0
0.4855346138387419 -0.7347922132134203 0.0
0.2433233190629611 -0.8011409273680365 0.0
1.5637601472700171 -0.1654516719410591 0.0
1.2289656551463695 -0.2189619340736583 0.0
1.2102168873908423 -0.2003575355852372 0.0
1.1841722106122743 -0.2673882037720987 0.0
0.4228758462621455 -0.2211624851609560 0.0
0.4567008732118569 -0.2149450105646547 0.0
1.2642057792852102 -0.2935587326280592 0.0
1.0451826088761873 -0.0262854795389500 0.0
1.0432295244810410 -0.0271371137587607 0.0
0.9405183681542595 -0.1118356498727460 0.0
1.0112412811505718 -0.1167699284129134 0.0
0.2755631554159430 -0.0512544502773505 0.0
0.2656662200000348 -0.0480094029221561 0.0
0.8375119101770812 -0.0199856834493257 0.0
1.5800656309960961 -0.1543620418901159 0.0
0.0173052879943307 -0.0177063931492758 0.0
0.0134833825901092 -0.0156583291505441 0.0
1.5372375574510488 -0.0975992138263773 0.0
1.5696749162967616 -0.1275891884032781 0.0
0.1379847945666050 -0.5080620535729974 0.0
1.0960157816071419 0.2305966425252737 0.0
1.0937242900532949 0.2310428272967433 0.0
0.2823377446962838 -0.5142414566509810 0.0
0.2400884539307049 -0.4520679784312219 0.0
0.6633184961369756 -1.0194069605711300 0.0
0.9303297700420780 -0.0548827771777738 0.0
0.8812434843143324 -0.1801578939276252 0.0
0.0378732125478696 -0.1945609694158686 0.0
0.4692727577766242 -1.1129459285463037 0.0
0.2621474797198373 -0.8438920792227032 0.0
0.7873823522705569 -0.1258673484488892 0.0
1.1400922588408717 -0.7962105420685510 0.0
1.5609650868487512 -0.0513262652337880 0.0
0.5683803709358694 -1.1274966530841513 0.0
0.0282012672524377 -0.3304891283991613 0.0
1.1085367975888183 -0.6652780354606608 0.0
0.0666555918420822 -0.3070563733357035 0.0
0.8054195520097379 -1.0336498422147320 0.0
0.4082106916613534 -0.0211194670708304 0.0
0.4313465506737967 -0.0189139438540499 0.0
0.0430184016260490 -0.1011783257391041 0.0
0.0228381315751926 -0.0325664384084229 0.0
0.0183123928377597 -0.0280052322355078 0.0
1.2801539823872103 -0.7652908509373971 0.0
0.9708719036982683 -0.6370417690471045 0.0
0.5884766127214073 -1.1720424045901134 0.0
0.0300310778460008 -0.1244729115559040 0.0
0.8660252920028776 0.1645728367783059 0.0
0.8387745880006381 0.1312630976073151 0.0
0.1531966127758120 -0.1729012876443394 0.0
0.1317059174869875 -0.1569430295223287 0.0
1.6423227555536546 -0.1214785674426280 0.0
1.6007953434766413 -0.3222431829833493 0.0
0.6649474659361273 -1.2155067803073589 0.0
0.7072034590394060 -1.1389679766339786 0.0
0.1425571083375366 -0.4403257897007301 0.0
0.4197816610444487 -1.0810955923017747 0.0
0.0344186433474891 -0.0260849671822592 0.0
0.0399357426644495 -0.0287350831754925 0.0
0.4524872102873472 -1.0622389441989906 0.0
0.6513606122580514 -0.1355903870750547 0.0
0.6131652105002235 -0.1210663334695219 0.0
0.9914946841546982 -0.4301540838851347 0.0
1.3581208664442339 -0.0311498316688686 0.0
0.1585018356461187 -0.6143912978698515 0.0
1.3032560927655279 -0.0647325246465317 0.0
0.9424028881392214 -0.4040319011572054 0.0
0.5027708316050677 -0.0331556017237693 0.0
0.5278725571555830 -0.0360992454885287 0.0
0.8941957667001069 -0.0196865486297755 0.0
1.5381509840909462 -0.3478280651222230 0.0
1.4666432074122853 -0.4083156807893749 0.0
0.5866189888802770 -1.0450769003113185 0.0
1.6000799524231717 -0.0535047308730994 0.0
1.5899111667293400 -0.0449548638004500 0.0
0.2202329301418887 -0.3084583532201420 0.0
0.1886411172063420 -0.2837498632530354 0.0
0.7798744489037120 -0.1433734323069017 0.0
0.8007987271067214 -0.1598552987840071 0.0
1.5598867801594904 -0.0766047297319907 0.0
0.5613867309107339 -0.0572392215038584 0.0
0.6323127024541735 -0.0790876310026859 0.0
0.6583633940187719 -0.0807584321125130 0.0
1.2611484455739355 0.0574547230260628 0.0
1.2108931534400627 0.0466411490800362 0.0
0.6387027428219390 0.0333046446239230 0.0
0.6391369053709147 0.0305017043282808 0.0
1.4568189344915081 -0.0523994684655701 0.0
0.3128904618745016 -0.0551085285174075 0.0
0.3318111770326582 -0.0593496205970456 0.0
0.2352812553990971 -0.1157413535563716 0.0
0.2570956583799178 -0.1182180455313758 0.0
0.7324473815196647 0.0588227240276270 0.0
0.7339616846698944 0.1058683227849810 0.0
0.0398953895392896 -0.3635893101001955 0.0
1.3145719819985329 -0.7095897081174024 0.0
1.3447229648385002 -0.7394228794799217 0.0
0.6741330308352281 -0.6596486647734165 0.0
0.7708348532011055 -0.5941977111054437 0.0
1.4252483574708745 -0.4219887024602572 0.0
0.6073366651773107 0.0250678491249439 0.0
0.6298641127147181 -0.0166238802856327 0.0
0.5366704051295443 -0.1091495312294947 0.0
0.5391840997481988 -0.1067744294431179 0.0
0.6789682334369653 -1.2431986650085638 0.0
0.0969644452748154 -0.0248322235471401 0.0
0.0913962145897586 -0.0257047720747481 0.0
0.5727336295869329 -0.7311385746450406 0.0
0.6719508873658601 -0.0978090854593461 0.0
0.6705857759449361 -0.1056840750921061 0.0
1.3080542240166049 -0.1399231958208476 0.0
1.3140837363820967 -0.1134252021513131 0.0
0.4670379240122733 -0.3268708999364444 0.0
0.4054687523564701 -0.3252625140055103 0.0
-0.0002057183582270 -0.1648938597505805 0.0
1.3695254146584526 -0.1461316623949087 0.0
0.6088847821441771 -0.8011990433186097 0.0
0.1175769395711346 -0.4335827796248802 0.0
0.4365289407025778 -0.7317416330063219 0.0
0.9800018170394775 -0.9677738062723492 0.0
0.8974645983432550 -1.1506353503295721 0.0
1.4969412219083535 -0.0651845334694345 0.0
1.4925220769715519 -0.0963982171133027 0.0
0.6482148740309359 -1.2238522713101654 0.0
1.0438852056491672 -0.2722992266687704 0.0
0.9927990362052467 -0.2210357649363287 0.0
0.5119878947577167 -0.1646027099211075 0.0
0.4927325556296012 -0.1701161255119036 0.0
1.5596587515345635 -0.1080925276641927 0.0
0.9860812018044430 -1.0920735091482279 0.0
0.4151429560144018 -1.0706088659990232 0.0
1.2124994687575352 -0.1681047014113040 0.0
1.5662553303876741 -0.0918249770871312 0.0
1.5757206554128784 -0.0969065443609338 0.0
1.2853444943684744 -0.1699143912753699 0.0
0.0993645075648306 -0.0108391373662706 0.0
0.1077787543258461 -0.0091186081233790 0.0
0.4209272997850179 0.0680872372169828 0.0
1.3624693575234845 -0.1373958986157839 0.0
1.3216533919311391 0.0346436209723386 0.0
0.4386032964613758 -0.9038439115576197 0.0
0.1144034106700908 -0.2345643717131043 0.0
0.0924367733908050 -0.2001436811440295 0.0
0.1564184219220981 -0.0855674080894710 0.0
0.1381099484914419 -0.0801150706968470 0.0
0.3733554548070227 -0.6554987688228622 0.0
0.0058790825583385 -0.1210730744359348 0.0
0.9083007881993638 -0.8650884630599777 0.0
0.5211606176920625 0.0366164837230174 0.0
0.5041675188248474 0.0190453724880685 0.0
1.4811008062913187 -0.0481248920255105 0.0
1.4811506287984939 -0.0597692596561534 0.0
0.9448830343082655 -1.0791786872783597 0.0
1.6008447506831101 -0.1682297908869464 0.0
0.4294282597709388 -0.0484283123548239 0.0
0.0210202023964560 -0.0421138372591858 0.0
0.0149821392177887 -0.0360146888824945 0.0
0.3732391625180502 -0.8165936685386530 0.0
0.0210997613343662 -0.1121686255794092 0.0
0.7238078295897147 -0.9315536159369866 0.0
1.4499639262764412 -0.1394167878559725 0.0
0.6451931855029114 -0.4193048122431420 0.0
0.6011063447656700 -0.4369360992045982 0.0
0.6304139117542327 -1.1988392520843061 0.0
0.6699452122746319 0.0781681967923033 0.0
0.6671454136740553 0.0808340925543377 0.0
0.7874583488122789 -1.1522084068788501 0.0
0.1275701098093043 -0.6131190995862628 0.0
0.1087975777141201 -0.4802278764634603 0.0
0.0079373933483185 -0.1171005634248120 0.0
0.8421428720126479 0.0649257469526046 0.0
0.8047941831613782 0.0968843566612184 0.0
0.8330052486987451 -0.0507619539564372 0.0
0.8045472906116329 -0.0670498904116215 0.0
0.3156892096551192 -0.8879637200809657 0.0
0.6448595125997154 -0.1506613512440379 0.0
0.7739027028661860 -1.0134262808430883 0.0
1.3627308057273302 -0.7774866580986706 0.0
0.5335476513563430 0.0845723325423818 0.0
1.4804444751507972 -0.0119568972636414 0.0
1.4842049474704118 -0.0080020286590109 0.0
1.0395147965051046 -1.0086930431553034 0.0
0.7345689710491886 -1.1724915963351652 0.0
1.3265216963391337 -0.1567625132583376 0.0
0.7093030787535722 -1.2013525369956028 0.0
0.0800860947241447 -0.4044508793489556 0.0
1.1813573533092701 -0.0558888333749659 0.0
0.3743738924138818 -0.9362990477034921 0.0
1.6529870090908558 -0.0914582344666074 0.0
0.4113628968507632 -0.0051918905455510 0.0
1.5812257708223938 -0.0861212387300366 0.0
1.5503609754191063 -0.0992921410507465 0.0
-0.0039828353316136 -0.0008502999191015 0.0
-0.0031736989700417 -0.0008721792267942 0.0
0.5346827102827012 0.0426828460949770 0.0
0.3435779098901737 -0.0449302316235155 0.0
-0.0017018262408017 -0.0060006814402004 0.0
-0.0008023279894421 -0.0066568962143208 0.0
0.5563757284249110 -0.0345609131988612 0.0
0.6344229771386959 -0.8877162502882994 0.0
0.5591254982883734 -0.0341101616993757 0.0
0.5532469666174664 -0.0270587933993488 0.0
0.6904479509953562 -0.3130727630133520 0.0
0.7391117235052260 -0.3090141802313174 0.0
0.6355149862755508 -0.7704820959741502 0.0
0.3069981258220342 -0.3933049334784064 0.0
0.3530717505840935 -0.4316387740632300 0.0
-0.0005158430067264 -0.0024406639927456 0.0
-0.0021885555863828 -0.0022794159217747 0.0
1.2902821457664271 -0.4693055615403140 0.0
1.3468562736293217 -0.6514237180439935 0.0
0.9376838682097663 -0.6182144447805222 0.0
0.7509195994933887 -0.4349173059219246 0.0
