# vtk DataFile Version 3.0
LucasCarvalhoTCC Results
ASCII

DATASET POLYDATA
FIELD FieldData 1
TIME 1 1 double
4.800000000000001

POINTS 380 float
0.0 2.0 0.0
2.0 2.0 0.0
3.0 2.0 0.0
3.0 1.0 0.0
5.0 1.0 0.0
5.0 0.0 0.0
3.0 0.0 0.0
2.0 0.0 0.0
2.0 1.0 0.0
0.0 1.0 0.0
0.2643114543905713 2.0 0.0
0.5169795502969444 2.0 0.0
0.7585171880292413 2.0 0.0
0.9894145836600268 2.0 0.0
1.210140497826619 2.0 0.0
1.421143008568911 2.0 0.0
1.622850459538253 2.0 0.0
1.815672303789548 2.0 0.0
2.188552664328277 2.0 0.0
2.359329284173903 2.0 0.0
2.514005696104645 2.0 0.0
2.654099788331341 2.0 0.0
2.780986322989182 2.0 0.0
2.895910470953052 2.0 0.0
3.0 1.9 0.0
3.0 1.8 0.0
3.0 1.7 0.0
3.0 1.6 0.0
3.0 1.5 0.0
3.0 1.4 0.0
3.0 1.3 0.0
3.0 1.2 0.0
3.0 1.1 0.0
3.105031513416626 1.0 0.0
3.221094637894669 1.0 0.0
3.349348047908936 1.0 0.0
3.491072094154001 1.0 0.0
3.647681638607018 1.0 0.0
3.820740106959136 1.0 0.0
4.011975186625977 1.0 0.0
4.223295996958671 1.0 0.0
4.456812096249916 1.0 0.0
4.714854728122151 1.0 0.0
5.0 0.7500000000000003 0.0
5.0 0.5000000000000012 0.0
5.0 0.2500000000000011 0.0
4.735688545609428 0.0 0.0
4.483020449703056 0.0 0.0
4.241482811970759 0.0 0.0
4.010585416339973 0.0 0.0
3.789859502173381 0.0 0.0
3.578856991431089 0.0 0.0
3.377149540461747 0.0 0.0
3.184327696210452 0.0 0.0
2.811447335671723 0.0 0.0
2.640670715826097 0.0 0.0
2.485994303895355 0.0 0.0
2.345900211668659 0.0 0.0
2.219013677010818 0.0 0.0
2.104089529046948 0.0 0.0
2.0 0.1 0.0
2.0 0.2 0.0
2.0 0.3 0.0
2.0 0.4 0.0
2.0 0.5 0.0
2.0 0.6 0.0
2.0 0.7 0.0
2.0 0.8 0.0
2.0 0.9 0.0
1.894968486583374 1.0 0.0
1.77890536210533 1.0 0.0
1.650651952091063 1.0 0.0
1.508927905845999 1.0 0.0
1.352318361392982 1.0 0.0
1.179259893040864 1.0 0.0
0.9880248133740233 1.0 0.0
0.7767040030413299 1.0 0.0
0.5431879037500846 1.0 0.0
0.2851452718778493 1.0 0.0
0.0 1.25 0.0
0.0 1.499999999999999 0.0
0.0 1.749999999999999 0.0
2.426045913985508 1.348290599604586 0.0
2.562221387987337 0.6558377602558874 0.0
1.966703786708101 1.492474555319359 0.0
3.033486484223225 0.4973568340887861 0.0
2.371610747520728 0.97814425147097 0.0
2.648098402859118 1.648016516253387 0.0
2.351901597140882 0.3519834837466129 0.0
2.694321138879857 1.061432730999581 0.0
1.441644339445862 1.496646809257773 0.0
3.554831642064292 0.501744031268764 0.0
2.720742750697982 1.350625068836981 0.0
2.282037541072919 0.639419348257894 0.0
2.813390610951134 0.7911761792959446 0.0
2.310700631729327 1.679155452525512 0.0
2.688751528716965 0.3206838402855661 0.0
2.211165393176843 1.213708510063781 0.0
0.9449004170027906 1.496357611130017 0.0
4.05509958299721 0.5036423888699835 0.0
3.025501657200047 0.7528388163714679 0.0
1.714778657098197 1.300039655550584 0.0
1.958264922640818 1.245975101752485 0.0
2.206386339371814 0.8500000000000001 0.0
3.336706349465057 0.704398544338507 0.0
4.529565928894533 0.555233644424822 0.0
0.4704340711054673 1.444766355575178 0.0
2.186983355180128 1.461437746541105 0.0
2.553715879020142 0.8859594914241276 0.0
2.782212276375736 0.5474565156445963 0.0
2.500206140967324 1.148517546040804 0.0
2.803373162317882 1.783880361314082 0.0
2.196626837682118 0.2161196386859174 0.0
1.735623536927746 1.664129737658362 0.0
3.268802735993943 0.3358439745752063 0.0
2.799454045372581 1.51553500056848 0.0
2.18762015375897 0.4992029885790829 0.0
2.813478812948685 1.18678600527921 0.0
2.400994471757771 0.7612313552289275 0.0
2.405444563947088 0.5311203927463914 0.0
2.583195945356847 1.473216966241769 0.0
3.734210872783077 0.7260959952797862 0.0
1.256500988572085 1.265010492624376 0.0
2.938353069321001 0.2909212553641365 0.0
2.061245308362322 1.709221243241415 0.0
2.182240881432738 1.001025052084926 0.0
2.830214026212788 0.9796244234047695 0.0
2.49023894829247 1.787687811117195 0.0
2.50976105170753 0.2123121888828049 0.0
1.194806886820808 1.686899295332255 0.0
3.805193113179192 0.3131007046677451 0.0
2.655039231860651 1.208917360245127 0.0
1.493530449555064 1.231198576616718 0.0
2.345622594939228 1.152685186835846 0.0
2.41380980106708 1.521513100394759 0.0
2.58979513084283 0.4863225267637531 0.0
2.135472648094309 0.7246460081196311 0.0
2.912574128751924 0.660128736186259 0.0
2.866043013605144 1.353074765380587 0.0
0.6928324624395237 1.69170809873467 0.0
4.307167537560476 0.3082919012653306 0.0
2.071506740582853 1.128535871978767 0.0
0.6831902494895832 1.302725441792086 0.0
4.316809750510417 0.6972745582079137 0.0
2.85534466702333 1.667491236848871 0.0
2.141886244104996 0.336139391754002 0.0
1.447743165823209 1.773242752731258 0.0
3.554386585610856 0.224002072703283 0.0
2.96485662756902 0.8593908564801968 0.0
3.240425509636175 0.8099760775594669 0.0
2.088410584923666 1.339747073830609 0.0
3.277530767974837 0.4939020807639749 0.0
3.534313505233912 0.7935179117986669 0.0
2.546683861402325 1.011736398479819 0.0
2.664793655038503 0.758149595673951 0.0
2.7009922066801 0.9086021996324817 0.0
1.844652141496971 1.153158997353228 0.0
2.575910747861113 1.316876286520138 0.0
3.994328863599566 0.7454319923658932 0.0
1.005671136400434 1.254568007634107 0.0
1.722192091537185 1.482888323667831 0.0
2.644751416415203 1.850904811198953 0.0
2.355248583584797 0.1490951888010467 0.0
2.31560379269905 1.25706851182614 0.0
2.129697972466254 0.5864366202645266 0.0
2.417220568140766 0.6397160301847872 0.0
2.867945749403976 1.069821281672812 0.0
3.182303046124178 0.6739667261124369 0.0
4.702774994215813 0.2953677284017739 0.0
0.2972250057841874 1.704632271598226 0.0
2.90043748182062 0.4316738443013928 0.0
2.486081387366873 0.3514585853722887 0.0
2.513918612633127 1.648541414627711 0.0
2.086778258621772 1.563111332603502 0.0
4.025359850459486 0.2638518716814435 0.0
0.9746401495405139 1.736148128318556 0.0
3.116389458098145 0.2933651166122753 0.0
1.885410353788165 1.707062521230272 0.0
2.327134732627959 1.833634230002939 0.0
2.672865267372041 0.1663657699970617 0.0
1.675899428547673 1.15999616666306 0.0
1.858973331615206 1.373382723203102 0.0
2.860266039499884 1.862282581689995 0.0
2.139733960500116 0.1377174183100045 0.0
1.257473476073173 1.479081588926576 0.0
3.731624273377778 0.5208146070195914 0.0
2.115038607594509 0.9238947313642476 0.0
0.2734661728051435 1.270630989444945 0.0
4.726533827194856 0.7293690105550548 0.0
2.699965708650878 1.465007479364728 0.0
2.298365077320068 0.5341069340550768 0.0
2.510583000486659 0.7602856732279889 0.0
3.370667741214912 0.8392397884376295 0.0
3.067541604254986 0.8806352314757129 0.0
2.90073732483139 1.443475210354718 0.0
2.264071206758208 0.9501943312745662 0.0
2.278663096491763 0.7489636980394857 0.0
1.952511813454414 1.110576661474517 0.0
2.744352083917141 0.687787375233183 0.0
1.566252941493004 1.383661493752942 0.0
2.437660520624072 0.8703573012735125 0.0
2.904826075218911 1.261819176983655 0.0
2.305967018083784 1.391390767447104 0.0
2.105729326736999 0.8145314366030645 0.0
2.428967188976762 1.236966721617647 0.0
3.060475488407204 0.1442825789852263 0.0
1.934979199332455 1.852811714602595 0.0
2.095475260770118 0.4348597444661615 0.0
2.914777085426361 1.759093454264707 0.0
2.084827330449114 0.2414252069642749 0.0
2.207128288422204 1.315477221019454 0.0
2.658751426439581 0.5773232450959589 0.0
2.612380011409894 1.114144853433198 0.0
2.897371573983894 1.569769587751228 0.0
0.5001010519014215 1.226918930408543 0.0
4.499898948098578 0.7730810695914568 0.0
2.753086810589338 1.690362801865437 0.0
2.246793053318422 0.3097947118702842 0.0
3.391580469276819 0.5673489147038103 0.0
3.035026488699165 0.6179797538177514 0.0
2.449819864663089 1.055109427275025 0.0
2.27653308928065 1.054384468582349 0.0
2.794675693196835 1.418106589018447 0.0
2.778866980525137 1.083577784614141 0.0
2.244522876020972 0.1116738824400324 0.0
2.755477123979027 1.888326117559968 0.0
2.323887028942199 0.8604475039748537 0.0
2.204900210979926 1.747483509451062 0.0
2.794853185869193 0.2526222191943996 0.0
2.320767315286541 1.530441598510029 0.0
1.550828143561484 1.606851581022188 0.0
2.796593663741882 1.288013595743853 0.0
3.436143660897262 0.3940652474171653 0.0
2.682379445750112 0.4493639922429763 0.0
3.242313228541417 0.154845696987206 0.0
1.75965289115187 1.844031320058407 0.0
1.3642341383496 1.159631408929946 0.0
1.980047380836635 1.36362624976796 0.0
2.070303834520089 1.451946835577872 0.0
2.55866460451515 1.229901920133861 0.0
4.26844523535139 0.499131154814159 0.0
0.7315547646486098 1.500868845185841 0.0
2.716116351489881 1.570657861970705 0.0
2.283245236086922 0.4299499540566049 0.0
4.50573905238033 0.204273435313806 0.0
0.4942609476196695 1.795726564686194 0.0
3.605070352001925 0.644396355247622 0.0
3.171946621948212 0.9019117497969773 0.0
3.40309695214227 0.1789624633199048 0.0
1.59690304785773 1.821037536680094 0.0
4.776800700354217 0.5074282293075529 0.0
0.2231992996457826 1.492571770692447 0.0
1.293020597407515 1.839015256431498 0.0
3.706979402592485 0.1609847435685022 0.0
1.398281395597716 1.351857389185529 0.0
2.880181082677912 0.1378504756446906 0.0
2.119200639021148 1.861833157788504 0.0
2.408646939494887 0.2452196658480275 0.0
2.591353060505113 1.754780334151973 0.0
1.146570081566377 1.160946826906423 0.0
3.853429918433624 0.8390531730935771 0.0
2.920846657438631 1.149071660619678 0.0
2.101132283911678 1.226382957654413 0.0
2.903672483971366 0.7774662795474147 0.0
2.516386521935266 0.571665255016536 0.0
2.475412447847437 1.444413760085193 0.0
2.903041575637174 0.5510905120278109 0.0
3.666476299189054 0.8553176740217776 0.0
1.558137053653031 1.119389262041809 0.0
3.867595456948903 0.1475874639835382 0.0
1.132404543051097 1.852412536016462 0.0
2.635017655944937 0.9730281566682446 0.0
2.436667490139274 1.901171080200935 0.0
2.563332509860726 0.09882891979906516 0.0
2.091598337090247 1.040423151014485 0.0
0.8316881289508771 1.172977685150089 0.0
4.168311871049123 0.827022314849911 0.0
3.648565743761548 0.3681286963687066 0.0
1.355037313653319 1.636865536133179 0.0
2.58412781071005 1.576586299624529 0.0
2.41587218928995 0.4234137003754711 0.0
2.083716468691946 0.6634832154935376 0.0
1.843942294678346 1.256771801786488 0.0
[...]
POINT_DATA 380

VECTORS Velocity float
0.0000000000000000 0.0000000000000000 0.0
0.0000000000000000 0.0000000000000000 0.0
0.0000000000000000 0.0000000000000000 0.0
0.0000000000000000 0.0000000000000000 0.0
0.0000000000000000 0.0000000000000000 0.0
0.9186852873009127 -0.1330570860155883 0.0
0.0000000000000000 0.0000000000000000 0.0
0.0000000000000000 0.0000000000000000 0.0
0.0000000000000000 0.0000000000000000 0.0
0.0000000000000000 0.0000000000000000 0.0
0.0000000000000000 0.0000000000000000 0.0
0.0000000000000000 0.0000000000000000 0.0
0.0000000000000000 0.0000000000000000 0.0
0.0000000000000000 0.0000000000000000 0.0
0.0000000000000000 0.0000000000000000 0.0
0.0000000000000000 0.0000000000000000 0.0
0.0000000000000000 0.0000000000000000 0.0
0.0000000000000000 0.0000000000000000 0.0
0.0000000000000000 0.0000000000000000 0.0
0.0000000000000000 0.0000000000000000 0.0
0.0000000000000000 0.0000000000000000 0.0
0.0000000000000000 0.0000000000000000 0.0
0.0000000000000000 0.0000000000000000 0.0
0.0000000000000000 0.0000000000000000 0.0
0.0000000000000000 0.0000000000000000 0.0
0.0000000000000000 0.0000000000000000 0.0
0.0000000000000000 0.0000000000000000 0.0
0.0000000000000000 0.0000000000000000 0.0
0.0000000000000000 0.0000000000000000 0.0
0.0000000000000000 0.0000000000000000 0.0
0.0000000000000000 0.0000000000000000 0.0
0.0000000000000000 0.0000000000000000 0.0
0.0000000000000000 0.0000000000000000 0.0
0.0000000000000000 0.0000000000000000 0.0
0.0000000000000000 0.0000000000000000 0.0
0.0000000000000000 0.0000000000000000 0.0
0.0000000000000000 0.0000000000000000 0.0
0.0000000000000000 0.0000000000000000 0.0
0.0000000000000000 0.0000000000000000 0.0
0.0000000000000000 0.0000000000000000 0.0
0.0000000000000000 0.0000000000000000 0.0
0.0000000000000000 0.0000000000000000 0.0
0.0000000000000000 0.0000000000000000 0.0
1.1551806046457846 0.3642182051400207 0.0
0.7957331563966585 0.0634322247559953 0.0
1.1395825700977762 -0.2964999538357776 0.0
0.0000000000000000 0.0000000000000000 0.0
0.0000000000000000 0.0000000000000000 0.0
0.0000000000000000 0.0000000000000000 0.0
0.0000000000000000 0.0000000000000000 0.0
0.0000000000000000 0.0000000000000000 0.0
0.0000000000000000 0.0000000000000000 0.0
0.0000000000000000 0.0000000000000000 0.0
0.0000000000000000 0.0000000000000000 0.0
0.0000000000000000 0.0000000000000000 0.0
0.0000000000000000 0.0000000000000000 0.0
0.0000000000000000 0.0000000000000000 0.0
0.0000000000000000 0.0000000000000000 0.0
0.0000000000000000 0.0000000000000000 0.0
0.0000000000000000 0.0000000000000000 0.0
0.0000000000000000 0.0000000000000000 0.0
0.0000000000000000 0.0000000000000000 0.0
0.0000000000000000 0.0000000000000000 0.0
0.0000000000000000 0.0000000000000000 0.0
0.0000000000000000 0.0000000000000000 0.0
0.0000000000000000 0.0000000000000000 0.0
0.0000000000000000 0.0000000000000000 0.0
0.0000000000000000 0.0000000000000000 0.0
0.0000000000000000 0.0000000000000000 0.0
0.0000000000000000 0.0000000000000000 0.0
0.0000000000000000 0.0000000000000000 0.0
0.0000000000000000 0.0000000000000000 0.0
0.0000000000000000 0.0000000000000000 0.0
0.0000000000000000 0.0000000000000000 0.0
0.0000000000000000 0.0000000000000000 0.0
0.0000000000000000 0.0000000000000000 0.0
0.0000000000000000 0.0000000000000000 0.0
0.0000000000000000 0.0000000000000000 0.0
0.0000000000000000 0.0000000000000000 0.0
1.0000000000000000 0.0000000000000000 0.0
1.0000000000000000 0.0000000000000000 0.0
1.0000000000000000 0.0000000000000000 0.0
0.9250718339561487 -0.8351537781686030 0.0
0.8089782245098512 -0.8596120783800215 0.0
1.5178004771498084 -0.2558717132982715 0.0
1.4602484200698129 -0.2516462056204015 0.0
0.5903167587134588 -1.2001963615685116 0.0
0.2638555418494335 -0.2065574709950780 0.0
0.2239130492160380 -0.1951511012854932 0.0
0.5753433800106995 -1.2208446090487723 0.0
1.5744868632521192 -0.0763049162154963 0.0
1.6112702202446678 -0.1198655119453683 0.0
0.2737312074672450 -0.6897720529882693 0.0
0.2521834858773908 -0.6040325386495996 0.0
1.1642593510652632 -0.9905775044219423 0.0
0.7037591793551238 -0.2053804278320391 0.0
0.6611199442219360 -0.1921051110192838 0.0
1.1597975003306740 -0.9004542007638070 0.0
1.6001501307418757 -0.0195809769720958 0.0
1.5975314020618292 -0.0091430257570225 0.0
1.4943006977319879 -0.3489018062399172 0.0
1.4998099658197259 -0.0581082695850095 0.0
1.4351056677121086 -0.3093110571910385 0.0
0.2575962214795666 -0.8203063650028040 0.0
1.5175757691339282 -0.0671855701196699 0.0
1.5836264681084857 0.0097351224674385 0.0
1.5334863426524423 0.0359702619142688 0.0
1.2901228341851307 -0.4997935255806129 0.0
0.6982055396224173 -1.2037632442659929 0.0
1.1877838484917360 -0.4569926212270759 0.0
0.6878955961728230 -1.2138906455743814 0.0
0.0517936396000601 -0.0655971851676355 0.0
0.0425600638986642 -0.0561652263419856 0.0
1.1912039364633711 -0.0812941879144471 0.0
1.1138517824469114 -0.0924116863473725 0.0
0.1068654919129172 -0.3182917607018190 0.0
0.0764546173208789 -0.2555956233388028 0.0
0.1736698805275338 -0.7393773540791534 0.0
0.4953470907085654 -0.9740801970503303 0.0
0.4538026103908950 -0.5592335465355320 0.0
0.5260282043341643 -0.5672965233984543 0.0
1.3928841218308545 -0.0124684100524666 0.0
1.3075773341248293 -0.0808387743688259 0.0
0.8075641827542929 -0.1290018924716040 0.0
0.8778944430754635 -0.1313829516636151 0.0
0.5547706425918126 -0.9781559352913576 0.0
0.6240919115187307 -1.0886429473676589 0.0
0.2956840797178358 -0.0352567802014837 0.0
0.2725088132595191 -0.0396637748316661 0.0
1.2772602988727904 0.0117478060535615 0.0
1.2778765510730554 0.0076398686268128 0.0
0.4669475324909702 -1.0566101123195804 0.0
1.2568341648965671 0.0017644337704386 0.0
0.8835406011269236 -1.0992062726158967 0.0
0.7857651809601398 -0.4851212451904942 0.0
0.7954068068428441 -0.5262683977555692 0.0
0.0298136540481414 -0.3517135434040043 0.0
1.5096292148028125 -0.5442017073966290 0.0
0.0640804775560696 -0.3816586520729674 0.0
1.3446622171107614 0.0064469977997152 0.0
1.3450922733909039 0.0148986929212017 0.0
1.0936894256612302 -0.7349779088062984 0.0
1.3761503760530012 -0.0384119335247322 0.0
1.3734946165141355 -0.0565342645262384 0.0
0.0435955870265228 -0.1115492584711472 0.0
0.0378743366322014 -0.0937034609489046 0.0
0.7915673597736266 -0.0086709399855596 0.0
0.7744496445744766 -0.0273596801151025 0.0
1.2380439736613229 -0.5612885082222976 0.0
1.2446854877651308 -0.1001323185833493 0.0
1.4512450118989921 -0.5544680228749351 0.0
1.5356554353770626 -0.0927699382148431 0.0
1.2091817179714743 -0.0647760967644091 0.0
0.6652886580616093 -1.2691628541957241 0.0
0.9490745954846138 -0.9759938347263708 0.0
0.8090096470202867 -1.2422851628208813 0.0
1.0688723139996386 -0.0564714486618303 0.0
0.5971355495446332 -0.9088117992421174 0.0
1.0658822654014883 -0.0517397768959606 0.0
1.0677702797848443 -0.0526667369575268 0.0
1.5798495585979777 -0.0659049424717244 0.0
0.0905382459626860 -0.0381429907290816 0.0
0.0795941158399241 -0.0350418599944230 0.0
1.0515489470022072 -0.9166853682962874 0.0
0.0412286038383867 -0.1880322060697532 0.0
0.4856670585403816 -0.7489591891625949 0.0
0.2462908758387056 -0.7678791152305940 0.0
1.5668535322502823 -0.1604805858082827 0.0
1.2290452508171537 -0.2189077926601889 0.0
1.2102374070049924 -0.2003302711945506 0.0
1.1901584878628710 -0.2685830471071751 0.0
0.4034596703233403 -0.2265755946775357 0.0
0.4424549027946560 -0.2230402854311558 0.0
1.2735224511263277 -0.2946497059383972 0.0
1.0451193654774522 -0.0266527318157052 0.0
1.0429919725489358 -0.0274846084588090 0.0
0.9374057152219517 -0.1125540564455361 0.0
1.0136539561232223 -0.1171596086725436 0.0
0.2710357791353838 -0.0533704892952325 0.0
0.2584993463708348 -0.0496817750065658 0.0
0.8347447081703883 -0.0183305216981062 0.0
1.5832519575012458 -0.1488075376783262 0.0
0.0094538648183484 -0.0179158891159870 0.0
0.0076887715196742 -0.0147691465747655 0.0
1.5372929464662275 -0.0975834775907985 0.0
1.5698984687603672 -0.1290327168707822 0.0
0.1400993678133295 -0.4835614100732117 0.0
1.0959956248065217 0.2306219535602242 0.0
1.0936414326325421 0.2310953280873749 0.0
0.2734859506390317 -0.5086356167548374 0.0
0.2287842034231487 -0.4354241075370475 0.0
0.6778792363146037 -1.0599067472140551 0.0
0.9320354431029794 -0.0545764657701209 0.0
0.8770248388383032 -0.1751041903108037 0.0
0.0354330078415976 -0.1786849645615527 0.0
0.4706193122330226 -1.0963544402950305 0.0
0.2663364647847101 -0.8255625466949786 0.0
0.7763086804878343 -0.1224912885843972 0.0
1.1611567473145799 -0.8106603399573591 0.0
1.5613572705755963 -0.0484480168571441 0.0
0.5794350667277288 -1.1592245875049652 0.0
0.0311487078069646 -0.3098206664769707 0.0
1.1276273131070746 -0.6824952263587972 0.0
0.0699767849254219 -0.2868531007532942 0.0
0.8216664270890477 -1.0709397391451172 0.0
0.4053305868106362 -0.0213361325784527 0.0
0.4317663921055194 -0.0191693156235927 0.0
0.0355145546395220 -0.0896264913129911 0.0
0.0143116637520588 -0.0308047484448645 0.0
0.0118450431474702 -0.0252375089531297 0.0
1.2940424369271339 -0.7657248190887065 0.0
0.9847405996087698 -0.6635779076487462 0.0
0.5973111373492952 -1.2072096754573813 0.0
0.0240680775512346 -0.1138089396569973 0.0
0.8659861400280060 0.1645798593261462 0.0
0.8386591629643639 0.1312736579828146 0.0
0.1358868028527932 -0.1663271500681773 0.0
0.1147670670818284 -0.1459732313172421 0.0
1.6436818839657004 -0.1222570370128281 0.0
1.6082801149195374 -0.3161716325175104 0.0
0.6769756917105507 -1.2581952144289956 0.0
0.7097762753768371 -1.1323052709119359 0.0
0.1374000351930259 -0.4181521345972443 0.0
0.4220897622385892 -1.0607493055177766 0.0
0.0281530671805120 -0.0237808754166029 0.0
0.0331692531223071 -0.0271937736851644 0.0
0.4578810670220057 -1.0573900945422858 0.0
0.6496704578708504 -0.1391502821459843 0.0
0.6057462995127630 -0.1238114343400830 0.0
1.0018080306307460 -0.4456465522728168 0.0
1.3585881702333547 -0.0294358226602492 0.0
0.1584620400475232 -0.5894884897221442 0.0
1.3017051555698345 -0.0659329208916743 0.0
0.9457526205791146 -0.4203202480880890 0.0
0.5004771905904238 -0.0333502687555762 0.0
0.5286317739702465 -0.0360108249160782 0.0
0.8946481949111004 -0.0192924612723517 0.0
1.5432853396562254 -0.3406942601562626 0.0
1.4773342538464080 -0.4065822681908149 0.0
0.5961073507696037 -1.0853755668256302 0.0
1.6000746830539816 -0.0535688827334950 0.0
1.5899144763578830 -0.0451033219215877 0.0
0.2034294961583290 -0.3003541628467443 0.0
0.1714763131268708 -0.2679845490017281 0.0
0.7799901476979810 -0.1433699654391808 0.0
0.8008348794933701 -0.1598514395120625 0.0
1.5611807157857716 -0.0778516311486110 0.0
0.5604088536577484 -0.0552551520408364 0.0
0.6303122972155815 -0.0793753852187154 0.0
0.6584966736243284 -0.0802511202018806 0.0
1.2611520998349031 0.0575490862220568 0.0
1.2108940791254363 0.0466722603643482 0.0
0.6381992365240968 0.0333097399809191 0.0
0.6383176904778329 0.0300735151423449 0.0
1.4570799328284185 -0.0513129179220463 0.0
0.3097605740330669 -0.0559698216985032 0.0
0.3315078978188610 -0.0605848958312284 0.0
0.2167038651205075 -0.1148229160044819 0.0
0.2410316422210541 -0.1193384170256121 0.0
0.7328813030332594 0.0586513142761271 0.0
0.7342176924020456 0.1056894349018223 0.0
0.0453962841628752 -0.3429235658032275 0.0
1.3142851993863311 -0.6971158468868677 0.0
1.3488173026659742 -0.7241383904554710 0.0
0.6754260172503458 -0.6849409907521540 0.0
0.7808459101436080 -0.6231616532162915 0.0
1.4383483352035225 -0.4212746652489694 0.0
0.6079724181903999 0.0248289989961692 0.0
0.6291045938594330 -0.0155664780472100 0.0
0.5363556858469980 -0.1093631611711160 0.0
0.5387943166457639 -0.1068725998187265 0.0
0.6922220715994594 -1.2780885065498087 0.0
0.0919107852932843 -0.0257219511121139 0.0
0.0853183755884789 -0.0264650309093990 0.0
0.5643770376016469 -0.7039813088586234 0.0
0.6719867504720172 -0.0979207381068776 0.0
0.6704954887622341 -0.1057438807819869 0.0
1.3069411068735253 -0.1413382381602321 0.0
1.3136187316822776 -0.1129355113099960 0.0
0.4522207542630009 -0.3352248618901817 0.0
0.3855306100932710 -0.3286537338741234 0.0
0.0041263837318825 -0.1490013350098955 0.0
1.3661827338365014 -0.1393365835674212 0.0
0.6041210913271554 -0.7712631387943931 0.0
0.1125901089134860 -0.4071161545445021 0.0
0.4356398404953405 -0.7470220208503193 0.0
0.9744449955906708 -0.9457062776245452 0.0
0.9050546529929078 -1.1412877132604817 0.0
1.4973416968653730 -0.0659936085775889 0.0
1.4929081542066835 -0.0969781128692325 0.0
0.6545516113160466 -1.2239662577514177 0.0
1.0509957072086804 -0.2799979758050848 0.0
0.9954860701852009 -0.2282722167967107 0.0
0.5020723345413487 -0.1726466485005866 0.0
0.4773936946404496 -0.1772035233829180 0.0
1.5616109469326365 -0.1089484645862908 0.0
1.0032082099477055 -1.1054998131971896 0.0
0.4197794165513616 -1.0700218153562608 0.0
1.2135667115701523 -0.1677468740579920 0.0
1.5661189735928649 -0.0924184992865431 0.0
1.5756420489619194 -0.0978173445999443 0.0
1.2912420071412500 -0.1698537097454061 0.0
0.0909419293922513 -0.0119091306124604 0.0
0.1004636302552080 -0.0103286910012280 0.0
0.4211746090910488 0.0686899877603411 0.0
1.3633282200972510 -0.1370275926065064 0.0
1.3203045840825425 0.0377070798623387 0.0
0.4436016804430579 -0.9209335044909005 0.0
0.1001768655153144 -0.2214482847021008 0.0
0.0793757174465306 -0.1830655896802316 0.0
0.1400847444574035 -0.0839829418966382 0.0
0.1213071093592301 -0.0760614406980309 0.0
0.3686528175874298 -0.6509298843413419 0.0
0.0104379270096408 -0.1108784931561028 0.0
0.9282978552200325 -0.8965615812768362 0.0
0.5211280108299980 0.0366072763820454 0.0
0.5040577092754448 0.0190487197938731 0.0
1.4811805579341759 -0.0483574159490791 0.0
1.4810857311737979 -0.0599156109690250 0.0
0.9537759653104184 -1.0753285802931327 0.0
1.6061401727352185 -0.1645600037678273 0.0
0.4303580647526797 -0.0486829048875366 0.0
0.0131930298548427 -0.0381104681739883 0.0
0.0089763598738146 -0.0315406606324731 0.0
0.3774756635549127 -0.8127306251964116 0.0
0.0170320326846131 -0.0990244080912027 0.0
0.7373695796032143 -0.9731509282717979 0.0
1.4543149177239090 -0.1375287236175088 0.0
0.6413179454370933 -0.4382849894110558 0.0
0.5908728525166693 -0.4509274343791583 0.0
0.6437632699593715 -1.2424006848265934 0.0
0.6699060046574985 0.0780657309735424 0.0
0.6672418808224816 0.0808076161975265 0.0
0.8046653272313468 -1.1896119089150210 0.0
0.1299909899897001 -0.5810126006167108 0.0
0.1090480086369656 -0.4510123029398794 0.0
0.0097426150163356 -0.1076330628318544 0.0
0.8421333544840407 0.0649318066729140 0.0
0.8047611722243573 0.0969172275547553 0.0
0.8330165870433872 -0.0507535871083242 0.0
0.8045867085603260 -0.0670082120588114 0.0
0.3179211782035302 -0.8785852873023079 0.0
0.6361941931741214 -0.1450953035040745 0.0
0.7914132096686203 -1.0557246281805164 0.0
1.3762806958744942 -0.7751427344824177 0.0
0.5301535519503696 0.0850963694398130 0.0
1.4803852960196431 -0.0122030413296309 0.0
1.4842716124372548 -0.0081426289079525 0.0
1.0384651064953903 -0.9841098683802076 0.0
0.7489639216784675 -1.2094140559441771 0.0
1.3244177992264439 -0.1512654328734807 0.0
0.7204114732276824 -1.2223157712779860 0.0
0.0878462202536054 -0.3830803072941105 0.0
1.1761415718857011 -0.0514339553250379 0.0
0.3743145642551082 -0.9049282140065886 0.0
1.6564815003669062 -0.0896568037486005 0.0
0.4121790012479067 -0.0053637511617016 0.0
1.5813388785587852 -0.0860670174760006 0.0
1.5503890026575691 -0.0992781341680597 0.0
-0.0062946226075859 -0.0013211961285310 0.0
-0.0071860267849269 -0.0017372327182174 0.0
0.5347035669242912 0.0429777134515826 0.0
0.3403782106865987 -0.0422159487222059 0.0
-0.0033113929728896 -0.0056163879677318 0.0
-0.0034101980372578 -0.0066940406012371 0.0
0.5568850218342710 -0.0346359806270579 0.0
0.6437049179776029 -0.9182340197507106 0.0
0.5591490374093820 -0.0341145898888396 0.0
0.5533523268897550 -0.0270431494306882 0.0
0.6807262741442072 -0.3274149079429395 0.0
0.7367060676440993 -0.3251276339069953 0.0
0.6444366906217723 -0.8039660374700075 0.0
0.2904356220971644 -0.3872211951632963 0.0
0.3396425389833178 -0.4353025737721783 0.0
-0.0071469658935028 -0.0035502004679568 0.0
-0.0062980100660500 -0.0028179943351539 0.0
1.2742476889370575 -0.4553756071877863 0.0
1.3637184415137218 -0.6535250169107223 0.0
0.9525933176839115 -0.6438162365555227 0.0
0.7373801580074828 -0.4209452112467498 0.0
