# vtk DataFile Version 3.0
LucasCarvalhoTCC Results
ASCII

DATASET POLYDATA
FIELD FieldData 1
TIME 1 1 double
4.1000000000000005

POINTS 380 float
0.0 2.0 0.0
2.0 2.0 0.0
3.0 2.0 0.0
3.0 1.0 0.0
5.0 1.0 0.0
5.0 0.0 0.0
3.0 0.0 0.0
2.0 0.0 0.0
2.0 1.0 0.0
0.0 1.0 0.0
0.2643114543905713 2.0 0.0
0.5169795502969444 2.0 0.0
0.7585171880292413 2.0 0.0
0.9894145836600268 2.0 0.0
1.210140497826619 2.0 0.0
1.421143008568911 2.0 0.0
1.622850459538253 2.0 0.0
1.815672303789548 2.0 0.0
2.188552664328277 2.0 0.0
2.359329284173903 2.0 0.0
2.514005696104645 2.0 0.0
2.654099788331341 2.0 0.0
2.780986322989182 2.0 0.0
2.895910470953052 2.0 0.0
3.0 1.9 0.0
3.0 1.8 0.0
3.0 1.7 0.0
3.0 1.6 0.0
3.0 1.5 0.0
3.0 1.4 0.0
3.0 1.3 0.0
3.0 1.2 0.0
3.0 1.1 0.0
3.105031513416626 1.0 0.0
3.221094637894669 1.0 0.0
3.349348047908936 1.0 0.0
3.491072094154001 1.0 0.0
3.647681638607018 1.0 0.0
3.820740106959136 1.0 0.0
4.011975186625977 1.0 0.0
4.223295996958671 1.0 0.0
4.456812096249916 1.0 0.0
4.714854728122151 1.0 0.0
5.0 0.7500000000000003 0.0
5.0 0.5000000000000012 0.0
5.0 0.2500000000000011 0.0
4.735688545609428 0.0 0.0
4.483020449703056 0.0 0.0
4.241482811970759 0.0 0.0
4.010585416339973 0.0 0.0
3.789859502173381 0.0 0.0
3.578856991431089 0.0 0.0
3.377149540461747 0.0 0.0
3.184327696210452 0.0 0.0
2.811447335671723 0.0 0.0
2.640670715826097 0.0 0.0
2.485994303895355 0.0 0.0
2.345900211668659 0.0 0.0
2.219013677010818 0.0 0.0
2.104089529046948 0.0 0.0
2.0 0.1 0.0
2.0 0.2 0.0
2.0 0.3 0.0
2.0 0.4 0.0
2.0 0.5 0.0
2.0 0.6 0.0
2.0 0.7 0.0
2.0 0.8 0.0
2.0 0.9 0.0
1.894968486583374 1.0 0.0
1.77890536210533 1.0 0.0
1.650651952091063 1.0 0.0
1.508927905845999 1.0 0.0
1.352318361392982 1.0 0.0
1.179259893040864 1.0 0.0
0.9880248133740233 1.0 0.0
0.7767040030413299 1.0 0.0
0.5431879037500846 1.0 0.0
0.2851452718778493 1.0 0.0
0.0 1.25 0.0
0.0 1.499999999999999 0.0
0.0 1.749999999999999 0.0
2.426045913985508 1.348290599604586 0.0
2.562221387987337 0.6558377602558874 0.0
1.966703786708101 1.492474555319359 0.0
3.033486484223225 0.4973568340887861 0.0
2.371610747520728 0.97814425147097 0.0
2.648098402859118 1.648016516253387 0.0
2.351901597140882 0.3519834837466129 0.0
2.694321138879857 1.061432730999581 0.0
1.441644339445862 1.496646809257773 0.0
3.554831642064292 0.501744031268764 0.0
2.720742750697982 1.350625068836981 0.0
2.282037541072919 0.639419348257894 0.0
2.813390610951134 0.7911761792959446 0.0
2.310700631729327 1.679155452525512 0.0
2.688751528716965 0.3206838402855661 0.0
2.211165393176843 1.213708510063781 0.0
0.9449004170027906 1.496357611130017 0.0
4.05509958299721 0.5036423888699835 0.0
3.025501657200047 0.7528388163714679 0.0
1.714778657098197 1.300039655550584 0.0
1.958264922640818 1.245975101752485 0.0
2.206386339371814 0.8500000000000001 0.0
3.336706349465057 0.704398544338507 0.0
4.529565928894533 0.555233644424822 0.0
0.4704340711054673 1.444766355575178 0.0
2.186983355180128 1.461437746541105 0.0
2.553715879020142 0.8859594914241276 0.0
2.782212276375736 0.5474565156445963 0.0
2.500206140967324 1.148517546040804 0.0
2.803373162317882 1.783880361314082 0.0
2.196626837682118 0.2161196386859174 0.0
1.735623536927746 1.664129737658362 0.0
3.268802735993943 0.3358439745752063 0.0
2.799454045372581 1.51553500056848 0.0
2.18762015375897 0.4992029885790829 0.0
2.813478812948685 1.18678600527921 0.0
2.400994471757771 0.7612313552289275 0.0
2.405444563947088 0.5311203927463914 0.0
2.583195945356847 1.473216966241769 0.0
3.734210872783077 0.7260959952797862 0.0
1.256500988572085 1.265010492624376 0.0
2.938353069321001 0.2909212553641365 0.0
2.061245308362322 1.709221243241415 0.0
2.182240881432738 1.001025052084926 0.0
2.830214026212788 0.9796244234047695 0.0
2.49023894829247 1.787687811117195 0.0
2.50976105170753 0.2123121888828049 0.0
1.194806886820808 1.686899295332255 0.0
3.805193113179192 0.3131007046677451 0.0
2.655039231860651 1.208917360245127 0.0
1.493530449555064 1.231198576616718 0.0
2.345622594939228 1.152685186835846 0.0
2.41380980106708 1.521513100394759 0.0
2.58979513084283 0.4863225267637531 0.0
2.135472648094309 0.7246460081196311 0.0
2.912574128751924 0.660128736186259 0.0
2.866043013605144 1.353074765380587 0.0
0.6928324624395237 1.69170809873467 0.0
4.307167537560476 0.3082919012653306 0.0
2.071506740582853 1.128535871978767 0.0
0.6831902494895832 1.302725441792086 0.0
4.316809750510417 0.6972745582079137 0.0
2.85534466702333 1.667491236848871 0.0
2.141886244104996 0.336139391754002 0.0
1.447743165823209 1.773242752731258 0.0
3.554386585610856 0.224002072703283 0.0
2.96485662756902 0.8593908564801968 0.0
3.240425509636175 0.8099760775594669 0.0
2.088410584923666 1.339747073830609 0.0
3.277530767974837 0.4939020807639749 0.0
3.534313505233912 0.7935179117986669 0.0
2.546683861402325 1.011736398479819 0.0
2.664793655038503 0.758149595673951 0.0
2.7009922066801 0.9086021996324817 0.0
1.844652141496971 1.153158997353228 0.0
2.575910747861113 1.316876286520138 0.0
3.994328863599566 0.7454319923658932 0.0
1.005671136400434 1.254568007634107 0.0
1.722192091537185 1.482888323667831 0.0
2.644751416415203 1.850904811198953 0.0
2.355248583584797 0.1490951888010467 0.0
2.31560379269905 1.25706851182614 0.0
2.129697972466254 0.5864366202645266 0.0
2.417220568140766 0.6397160301847872 0.0
2.867945749403976 1.069821281672812 0.0
3.182303046124178 0.6739667261124369 0.0
4.702774994215813 0.2953677284017739 0.0
0.2972250057841874 1.704632271598226 0.0
2.90043748182062 0.4316738443013928 0.0
2.486081387366873 0.3514585853722887 0.0
2.513918612633127 1.648541414627711 0.0
2.086778258621772 1.563111332603502 0.0
4.025359850459486 0.2638518716814435 0.0
0.9746401495405139 1.736148128318556 0.0
3.116389458098145 0.2933651166122753 0.0
1.885410353788165 1.707062521230272 0.0
2.327134732627959 1.833634230002939 0.0
2.672865267372041 0.1663657699970617 0.0
1.675899428547673 1.15999616666306 0.0
1.858973331615206 1.373382723203102 0.0
2.860266039499884 1.862282581689995 0.0
2.139733960500116 0.1377174183100045 0.0
1.257473476073173 1.479081588926576 0.0
3.731624273377778 0.5208146070195914 0.0
2.115038607594509 0.9238947313642476 0.0
0.2734661728051435 1.270630989444945 0.0
4.726533827194856 0.7293690105550548 0.0
2.699965708650878 1.465007479364728 0.0
2.298365077320068 0.5341069340550768 0.0
2.510583000486659 0.7602856732279889 0.0
3.370667741214912 0.8392397884376295 0.0
3.067541604254986 0.8806352314757129 0.0
2.90073732483139 1.443475210354718 0.0
2.264071206758208 0.9501943312745662 0.0
2.278663096491763 0.7489636980394857 0.0
1.952511813454414 1.110576661474517 0.0
2.744352083917141 0.687787375233183 0.0
1.566252941493004 1.383661493752942 0.0
2.437660520624072 0.8703573012735125 0.0
2.904826075218911 1.261819176983655 0.0
2.305967018083784 1.391390767447104 0.0
2.105729326736999 0.8145314366030645 0.0
2.428967188976762 1.236966721617647 0.0
3.060475488407204 0.1442825789852263 0.0
1.934979199332455 1.852811714602595 0.0
2.095475260770118 0.4348597444661615 0.0
2.914777085426361 1.759093454264707 0.0
2.084827330449114 0.2414252069642749 0.0
2.207128288422204 1.315477221019454 0.0
2.658751426439581 0.5773232450959589 0.0
2.612380011409894 1.114144853433198 0.0
2.897371573983894 1.569769587751228 0.0
0.5001010519014215 1.226918930408543 0.0
4.499898948098578 0.7730810695914568 0.0
2.753086810589338 1.690362801865437 0.0
2.246793053318422 0.3097947118702842 0.0
3.391580469276819 0.5673489147038103 0.0
3.035026488699165 0.6179797538177514 0.0
2.449819864663089 1.055109427275025 0.0
2.27653308928065 1.054384468582349 0.0
2.794675693196835 1.418106589018447 0.0
2.778866980525137 1.083577784614141 0.0
2.244522876020972 0.1116738824400324 0.0
2.755477123979027 1.888326117559968 0.0
2.323887028942199 0.8604475039748537 0.0
2.204900210979926 1.747483509451062 0.0
2.794853185869193 0.2526222191943996 0.0
2.320767315286541 1.530441598510029 0.0
1.550828143561484 1.606851581022188 0.0
2.796593663741882 1.288013595743853 0.0
3.436143660897262 0.3940652474171653 0.0
2.682379445750112 0.4493639922429763 0.0
3.242313228541417 0.154845696987206 0.0
1.75965289115187 1.844031320058407 0.0
1.3642341383496 1.159631408929946 0.0
1.980047380836635 1.36362624976796 0.0
2.070303834520089 1.451946835577872 0.0
2.55866460451515 1.229901920133861 0.0
4.26844523535139 0.499131154814159 0.0
0.7315547646486098 1.500868845185841 0.0
2.716116351489881 1.570657861970705 0.0
2.283245236086922 0.4299499540566049 0.0
4.50573905238033 0.204273435313806 0.0
0.4942609476196695 1.795726564686194 0.0
3.605070352001925 0.644396355247622 0.0
3.171946621948212 0.9019117497969773 0.0
3.40309695214227 0.1789624633199048 0.0
1.59690304785773 1.821037536680094 0.0
4.776800700354217 0.5074282293075529 0.0
0.2231992996457826 1.492571770692447 0.0
1.293020597407515 1.839015256431498 0.0
3.706979402592485 0.1609847435685022 0.0
1.398281395597716 1.351857389185529 0.0
2.880181082677912 0.1378504756446906 0.0
2.119200639021148 1.861833157788504 0.0
2.408646939494887 0.2452196658480275 0.0
2.591353060505113 1.754780334151973 0.0
1.146570081566377 1.160946826906423 0.0
3.853429918433624 0.8390531730935771 0.0
2.920846657438631 1.149071660619678 0.0
2.101132283911678 1.226382957654413 0.0
2.903672483971366 0.7774662795474147 0.0
2.516386521935266 0.571665255016536 0.0
2.475412447847437 1.444413760085193 0.0
2.903041575637174 0.5510905120278109 0.0
3.666476299189054 0.8553176740217776 0.0
1.558137053653031 1.119389262041809 0.0
3.867595456948903 0.1475874639835382 0.0
1.132404543051097 1.852412536016462 0.0
2.635017655944937 0.9730281566682446 0.0
2.436667490139274 1.901171080200935 0.0
2.563332509860726 0.09882891979906516 0.0
2.091598337090247 1.040423151014485 0.0
0.8316881289508771 1.172977685150089 0.0
4.168311871049123 0.827022314849911 0.0
3.648565743761548 0.3681286963687066 0.0
1.355037313653319 1.636865536133179 0.0
2.58412781071005 1.576586299624529 0.0
2.41587218928995 0.4234137003754711 0.0
2.083716468691946 0.6634832154935376 0.0
1.843942294678346 1.256771801786488 0.0
[...]
POINT_DATA 380

VECTORS Velocity float
0.0000000000000000 0.0000000000000000 0.0
0.0000000000000000 0.0000000000000000 0.0
0.0000000000000000 0.0000000000000000 0.0
0.0000000000000000 0.0000000000000000 0.0
0.0000000000000000 0.0000000000000000 0.0
0.9186856256077394 -0.1330559463476359 0.0
0.0000000000000000 0.0000000000000000 0.0
0.0000000000000000 0.0000000000000000 0.0
0.0000000000000000 0.0000000000000000 0.0
0.0000000000000000 0.0000000000000000 0.0
0.0000000000000000 0.0000000000000000 0.0
0.0000000000000000 0.0000000000000000 0.0
0.0000000000000000 0.0000000000000000 0.0
0.0000000000000000 0.0000000000000000 0.0
0.0000000000000000 0.0000000000000000 0.0
0.0000000000000000 0.0000000000000000 0.0
0.0000000000000000 0.0000000000000000 0.0
0.0000000000000000 0.0000000000000000 0.0
0.0000000000000000 0.0000000000000000 0.0
0.0000000000000000 0.0000000000000000 0.0
0.0000000000000000 0.0000000000000000 0.0
0.0000000000000000 0.0000000000000000 0.0
0.0000000000000000 0.0000000000000000 0.0
0.0000000000000000 0.0000000000000000 0.0
0.0000000000000000 0.0000000000000000 0.0
0.0000000000000000 0.0000000000000000 0.0
0.0000000000000000 0.0000000000000000 0.0
0.0000000000000000 0.0000000000000000 0.0
0.0000000000000000 0.0000000000000000 0.0
0.0000000000000000 0.0000000000000000 0.0
0.0000000000000000 0.0000000000000000 0.0
0.0000000000000000 0.0000000000000000 0.0
0.0000000000000000 0.0000000000000000 0.0
0.0000000000000000 0.0000000000000000 0.0
0.0000000000000000 0.0000000000000000 0.0
0.0000000000000000 0.0000000000000000 0.0
0.0000000000000000 0.0000000000000000 0.0
0.0000000000000000 0.0000000000000000 0.0
0.0000000000000000 0.0000000000000000 0.0
0.0000000000000000 0.0000000000000000 0.0
0.0000000000000000 0.0000000000000000 0.0
0.0000000000000000 0.0000000000000000 0.0
0.0000000000000000 0.0000000000000000 0.0
1.1551862588531125 0.3641968370523618 0.0
0.7957332308582473 0.0633915986508932 0.0
1.1395792747686029 -0.2965234719620096 0.0
0.0000000000000000 0.0000000000000000 0.0
0.0000000000000000 0.0000000000000000 0.0
0.0000000000000000 0.0000000000000000 0.0
0.0000000000000000 0.0000000000000000 0.0
0.0000000000000000 0.0000000000000000 0.0
0.0000000000000000 0.0000000000000000 0.0
0.0000000000000000 0.0000000000000000 0.0
0.0000000000000000 0.0000000000000000 0.0
0.0000000000000000 0.0000000000000000 0.0
0.0000000000000000 0.0000000000000000 0.0
0.0000000000000000 0.0000000000000000 0.0
0.0000000000000000 0.0000000000000000 0.0
0.0000000000000000 0.0000000000000000 0.0
0.0000000000000000 0.0000000000000000 0.0
0.0000000000000000 0.0000000000000000 0.0
0.0000000000000000 0.0000000000000000 0.0
0.0000000000000000 0.0000000000000000 0.0
0.0000000000000000 0.0000000000000000 0.0
0.0000000000000000 0.0000000000000000 0.0
0.0000000000000000 0.0000000000000000 0.0
0.0000000000000000 0.0000000000000000 0.0
0.0000000000000000 0.0000000000000000 0.0
0.0000000000000000 0.0000000000000000 0.0
0.0000000000000000 0.0000000000000000 0.0
0.0000000000000000 0.0000000000000000 0.0
0.0000000000000000 0.0000000000000000 0.0
0.0000000000000000 0.0000000000000000 0.0
0.0000000000000000 0.0000000000000000 0.0
0.0000000000000000 0.0000000000000000 0.0
0.0000000000000000 0.0000000000000000 0.0
0.0000000000000000 0.0000000000000000 0.0
0.0000000000000000 0.0000000000000000 0.0
0.0000000000000000 0.0000000000000000 0.0
1.0000000000000000 0.0000000000000000 0.0
1.0000000000000000 0.0000000000000000 0.0
1.0000000000000000 0.0000000000000000 0.0
0.9173910266627341 -0.8208491273039117 0.0
0.8027056004169046 -0.8424419504328942 0.0
1.5148959444335661 -0.2573522775184897 0.0
1.4575203826601550 -0.2529230137845054 0.0
0.5864936538365821 -1.1931073279332201 0.0
0.2726850523700654 -0.2063221182763438 0.0
0.2339171762141108 -0.1970857935470005 0.0
0.5718583344988251 -1.2162565256990938 0.0
1.5744156578378927 -0.0768083927470600 0.0
1.6112024046111122 -0.1192789296550130 0.0
0.2750518489565136 -0.6940994096639310 0.0
0.2536770576839412 -0.6141788694540254 0.0
1.1585163393119904 -0.9936714507213342 0.0
0.7044762889218472 -0.2011866850192757 0.0
0.6648840684683236 -0.1879812730037536 0.0
1.1563548186300514 -0.9027489418606806 0.0
1.6001371492371772 -0.0193838595597037 0.0
1.5975296043808560 -0.0089706647618592 0.0
1.4943092117147450 -0.3528302587827922 0.0
1.5002952740004298 -0.0602839503849803 0.0
1.4374585391424992 -0.3137163875305914 0.0
0.2557152554285155 -0.8347050123725934 0.0
1.5167242752364753 -0.0676975440050602 0.0
1.5836442332651308 0.0097041613065217 0.0
1.5334888932705755 0.0359610895596787 0.0
1.2838777267362205 -0.4971095529721243 0.0
0.6905408707582604 -1.1824466729608794 0.0
1.1818960540763521 -0.4518487011553143 0.0
0.6816820964423770 -1.1924305140576148 0.0
0.0570723002946316 -0.0672814216088327 0.0
0.0472063746416046 -0.0588392865566988 0.0
1.1904146555010831 -0.0819276890384007 0.0
1.1148632172249870 -0.0922072354630226 0.0
0.1113661953453784 -0.3274601472102691 0.0
0.0803439294673679 -0.2661325041363571 0.0
0.1727233122052542 -0.7524122709012614 0.0
0.4914737213500898 -0.9682262204688147 0.0
0.4581887871778306 -0.5565401555319169 0.0
0.5277069638303807 -0.5597332906719156 0.0
1.3924974922448301 -0.0121477021431862 0.0
1.3073451814044226 -0.0808257771107039 0.0
0.8085913402903967 -0.1281348793619405 0.0
0.8765146142991173 -0.1305842857848472 0.0
0.5565240474615476 -0.9918983961447603 0.0
0.6233405037908845 -1.1014105113298933 0.0
0.3012773773756134 -0.0337417006206395 0.0
0.2798544939651721 -0.0382687957706780 0.0
1.2774907191369844 0.0118366098367461 0.0
1.2781236728375818 0.0079485785524001 0.0
0.4643621962350591 -1.0479475194195909 0.0
1.2569033243387469 0.0012280016524696 0.0
0.8776399163054950 -1.0910498483232214 0.0
0.7839229333113208 -0.4748156209434819 0.0
0.7958241102980226 -0.5149925738464991 0.0
0.0271414319948236 -0.3644312027311509 0.0
1.5055399422842228 -0.5477558690179153 0.0
0.0640439088596162 -0.3935516479898492 0.0
1.3446546384892650 0.0064713278229895 0.0
1.3450328763543151 0.0148937716171472 0.0
1.0995199086371850 -0.7448882740984780 0.0
1.3761560076149051 -0.0383964861187912 0.0
1.3735555729279689 -0.0565447021875667 0.0
0.0482472760891629 -0.1155041650979068 0.0
0.0419066419806768 -0.0987414431370600 0.0
0.7916545513388491 -0.0088373583047809 0.0
0.7750690820298903 -0.0271131629443891 0.0
1.2412278785588624 -0.5683980461473618 0.0
1.2443320168567629 -0.1009141405309080 0.0
1.4477785040634545 -0.5576033050093598 0.0
1.5354403125651737 -0.0928226811207792 0.0
1.2084110251871729 -0.0644797574542719 0.0
0.6585621341956561 -1.2470949194147591 0.0
0.9394589713673205 -0.9624099377026056 0.0
0.8033703878308784 -1.2349324327420492 0.0
1.0728179399031332 -0.0581894580661919 0.0
0.5930911216141032 -0.8946992117521015 0.0
1.0658686324593631 -0.0516392543385350 0.0
1.0676792331320799 -0.0525371627962396 0.0
1.5791092320862807 -0.0675299078377555 0.0
0.0946424598610796 -0.0386034793605044 0.0
0.0840971679396392 -0.0358871618284858 0.0
1.0441736310417744 -0.9094773534054640 0.0
0.0421501899162401 -0.1969226642958902 0.0
0.4857567804841949 -0.7429510681861846 0.0
0.2450808602437215 -0.7828162080661202 0.0
1.5657609680445717 -0.1625473712452733 0.0
1.2290196775202404 -0.2189275028521262 0.0
1.2102304270393704 -0.2003392653727211 0.0
1.1877240969579304 -0.2679633639409334 0.0
0.4123267455613709 -0.2240278436267071 0.0
0.4487364066963703 -0.2191887226654276 0.0
1.2695681066966999 -0.2943665751619912 0.0
1.0451379133960665 -0.0265079406935286 0.0
1.0430904091201996 -0.0273492930315083 0.0
0.9384959723652772 -0.1123757132302282 0.0
1.0124633323219190 -0.1171827373132859 0.0
0.2727990030196120 -0.0523256025821504 0.0
0.2615513860908720 -0.0488078318646424 0.0
0.8358415996756603 -0.0189744978886530 0.0
1.5821939604117390 -0.1512870081407608 0.0
0.0126394611392941 -0.0179974396651414 0.0
0.0100314283370817 -0.0153067648022245 0.0
1.5372769202549696 -0.0976018136226927 0.0
1.5698164421223959 -0.1284380933011249 0.0
0.1392035522664136 -0.4944352300956064 0.0
1.0960024853152848 0.2306133088223320 0.0
1.0936681265968577 0.2310774244565211 0.0
0.2776284772984713 -0.5116314015114175 0.0
0.2340169732867456 -0.4436184328937262 0.0
0.6710623366513168 -1.0416702434430165 0.0
0.9312535411758992 -0.0546291424062284 0.0
0.8786044344615637 -0.1772733326621270 0.0
0.0366027092354390 -0.1859758730297905 0.0
0.4697411143695521 -1.1040681115118167 0.0
0.2644775521784697 -0.8344739912331937 0.0
0.7808893264336318 -0.1239458913624790 0.0
1.1520805857160616 -0.8040238930698527 0.0
1.5612698587174927 -0.0496331579723272 0.0
0.5740172378120906 -1.1451793054256552 0.0
0.0300857986048514 -0.3192383275273523 0.0
1.1196796294803240 -0.6747103554483834 0.0
0.0686510512787766 -0.2959585905868257 0.0
0.8144866925254082 -1.0541538684244733 0.0
0.4063105414802806 -0.0212708802249868 0.0
0.4313613707771577 -0.0191143510677475 0.0
0.0388342124281028 -0.0949227335373246 0.0
0.0178129033931217 -0.0317503479495704 0.0
0.0144983668045790 -0.0266016377006076 0.0
1.2883854066338516 -0.7656768885942530 0.0
0.9790255506878480 -0.6511619459406619 0.0
0.5930967034270617 -1.1916226215465828 0.0
0.0266658094273516 -0.1187461958790178 0.0
0.8659989580944417 0.1645783146686030 0.0
0.8386985031817974 0.1312675366962545 0.0
0.1434390268581839 -0.1696405421901621 0.0
0.1222392457263430 -0.1512873371017091 0.0
1.6432802903460659 -0.1219538984909330 0.0
1.6055759946345252 -0.3188466338685026 0.0
0.6711572006638158 -1.2391146426168265 0.0
0.7083190256780629 -1.1354663597251422 0.0
0.1398456159039546 -0.4285918180584866 0.0
0.4210251550296727 -1.0701084768076166 0.0
0.0308972064690450 -0.0248937217474877 0.0
0.0360974258656629 -0.0279650325652976 0.0
0.4551690666701205 -1.0600538092488618 0.0
0.6499678767566679 -0.1375310682102212 0.0
0.6086853148583519 -0.1224127092174007 0.0
0.9974162396493578 -0.4385777927713000 0.0
1.3584059241042254 -0.0302050384208432 0.0
0.1586820875636854 -0.6011223089422453 0.0
1.3023646151819119 -0.0655130707747267 0.0
0.9445804640546711 -0.4125862413501466 0.0
0.5012905056933654 -0.0333204619390408 0.0
0.5281969093766428 -0.0361072883162234 0.0
0.8944652810114324 -0.0194399068040384 0.0
1.5414730203547904 -0.3440042961443086 0.0
1.4731331156113729 -0.4076053382554207 0.0
0.5918305879510757 -1.0674196797290625 0.0
1.6000780221280384 -0.0535553178100525 0.0
1.5899128560487461 -0.0450418787089749 0.0
0.2109487855243381 -0.3044252573798976 0.0
0.1792281160743645 -0.2756182271593268 0.0
0.7799494075579079 -0.1433742869759257 0.0
0.8008235390480426 -0.1598518277667529 0.0
1.5606775218512954 -0.0773006258333842 0.0
0.5606459188109428 -0.0560486120924457 0.0
0.6310695923084130 -0.0792998984316478 0.0
0.6583847146197284 -0.0804990363152285 0.0
1.2611507714726484 0.0575178942902877 0.0
1.2108938526366373 0.0466617472514623 0.0
0.6383936087476579 0.0332971267480456 0.0
0.6386390834473127 0.0302384016551844 0.0
1.4569896810753289 -0.0517473424301903 0.0
0.3108525804637281 -0.0555293329953298 0.0
0.3313606523128252 -0.0600232203632594 0.0
0.2250655554574154 -0.1152793612212294 0.0
0.2481002272478335 -0.1187919447184973 0.0
0.7327063535912065 0.0587183251815361 0.0
0.7341224236859158 0.1057661160517214 0.0
0.0432235746740569 -0.3522794760708252 0.0
1.3145308460787013 -0.7027669175093384 0.0
1.3470036187353109 -0.7309498993381958 0.0
0.6752662221109216 -0.6733729380324018 0.0
0.7767860998421976 -0.6098360637093559 0.0
1.4331875262338587 -0.4216044307818080 0.0
0.6077079209081286 0.0249386600773082 0.0
0.6293879828679337 -0.0159763493451485 0.0
0.5364768972688679 -0.1092776105298596 0.0
0.5389508999196682 -0.1068369894970827 0.0
0.6858756544060740 -1.2624715693919040 0.0
0.0941224214975593 -0.0252453227804706 0.0
0.0880568597343607 -0.0260492823842392 0.0
0.5678662319686230 -0.7158518266604667 0.0
0.6719674428647738 -0.0978760445206236 0.0
0.6705330372790176 -0.1057248849425065 0.0
1.3073901754092558 -0.1407876057788495 0.0
1.3137984447162707 -0.1131633324104905 0.0
0.4590165404105034 -0.3313787998996011 0.0
0.3948290823278807 -0.3272490095048604 0.0
0.0024015093630796 -0.1562047077587501 0.0
1.3676881645510872 -0.1422160402333942 0.0
0.6060237772146970 -0.7844289606399092 0.0
0.1149383192095029 -0.4195952070562439 0.0
0.4363206213639005 -0.7405120756563611 0.0
0.9767139983507283 -0.9555055806702311 0.0
0.9013728854082674 -1.1455232549463523 0.0
1.4971870056837804 -0.0656655507101906 0.0
1.4927541826663757 -0.0967534872063719 0.0
0.6514515962016955 -1.2240587029080343 0.0
1.0477827509986528 -0.2765830720615153 0.0
0.9943238290286390 -0.2247887610955315 0.0
0.5061869047183898 -0.1687436798622035 0.0
0.4841950774061248 -0.1737104448056226 0.0
1.5608406189969588 -0.1085357221525999 0.0
0.9954262166801454 -1.0994870925699847 0.0
0.4176926433418087 -1.0707017539437476 0.0
1.2131033912877132 -0.1679785276491354 0.0
1.5661739747018402 -0.0921904896180828 0.0
1.5756680533501006 -0.0974503191920364 0.0
1.2887096773530979 -0.1701206630490756 0.0
0.0947659868691807 -0.0114143711243946 0.0
0.1037186390616341 -0.0097604132271781 0.0
0.4209451437841283 0.0684676255242224 0.0
1.3630928218447764 -0.1373508461618739 0.0
1.3208590484728711 0.0364985079017723 0.0
0.4414859095971661 -0.9137289967739750 0.0
0.1064108800379984 -0.2277319695797753 0.0
0.0851290684567013 -0.1911208998674412 0.0
0.1472455354634349 -0.0848941139998804 0.0
0.1287897816267080 -0.0781042017948750 0.0
0.3709855490508982 -0.6537740947237703 0.0
0.0086837070399014 -0.1154849181715241 0.0
0.9195341705557254 -0.8821342213105765 0.0
0.5211371092572259 0.0366118308482860 0.0
0.5040984444648786 0.0190447651387319 0.0
1.4811435967487518 -0.0482659293132527 0.0
1.4811145019793956 -0.0598678698492243 0.0
0.9497552121516994 -1.0771666167193212 0.0
1.6043385546511257 -0.1661886363605587 0.0
0.4299256523846935 -0.0485459562247035 0.0
0.0164716741513265 -0.0399669392019350 0.0
0.0114909549189261 -0.0335954224192751 0.0
0.3756024592925534 -0.8152176924794209 0.0
0.0188937593263674 -0.1049940507470127 0.0
0.7315410907697052 -0.9543577166831495 0.0
1.4526217452027677 -0.1385778734150294 0.0
0.6432259269196858 -0.4294375190236024 0.0
0.5958852169453708 -0.4444679715832513 0.0
0.6372536623938972 -1.2228836551338917 0.0
0.6699268966731230 0.0781075446053267 0.0
0.6672017505683405 0.0808147759429010 0.0
0.7966122013645802 -1.1727426539433956 0.0
0.1290794067185459 -0.5957821374931793 0.0
0.1091194078886264 -0.4645793103990621 0.0
0.0091343089455374 -0.1119266543044317 0.0
0.8421366901982353 0.0649296882341289 0.0
0.8047715270840821 0.0969070908014108 0.0
0.8330128055308440 -0.0507564386411403 0.0
0.8045736677002694 -0.0670213247641446 0.0
0.3170513400378248 -0.8833603818110419 0.0
0.6396833296566758 -0.1475667252906247 0.0
0.7833708796819858 -1.0364905022250319 0.0
1.3705425418677379 -0.7762001480685783 0.0
0.5314729711878580 0.0848979983123004 0.0
1.4804136480645185 -0.0121056217581298 0.0
1.4842428282844300 -0.0080959629925579 0.0
1.0386201268045117 -0.9950375622429107 0.0
0.7422747192116087 -1.1929279213794786 0.0
1.3251904260357150 -0.1535208318423714 0.0
0.7150660914177647 -1.2130743304061875 0.0
0.0846430020283543 -0.3925302266087931 0.0
1.1782757337605680 -0.0532355267022896 0.0
0.3742021418345551 -0.9189841462393540 0.0
1.6553193334961942 -0.0903921029910875 0.0
0.4118227995665267 -0.0052834714814805 0.0
1.5812993474002677 -0.0860935551636065 0.0
1.5503810290201518 -0.0992798712633422 0.0
-0.0054547979324072 -0.0011642739265119 0.0
-0.0056415204171628 -0.0014207939342005 0.0
0.5346825359672265 0.0428643642027313 0.0
0.3415951479246091 -0.0433728596220932 0.0
-0.0026907717124891 -0.0058422899071453 0.0
-0.0023718470246966 -0.0067432344295155 0.0
0.5566798299156402 -0.0346041489858495 0.0
0.6395828843851143 -0.9046153435384475 0.0
0.5591435441062584 -0.0341118140938726 0.0
0.5533118718780764 -0.0270513061313452 0.0
0.6852927144210251 -0.3205605855943272 0.0
0.7377083829652176 -0.3175684655857821 0.0
0.6407904059315246 -0.7888186896223608 0.0
0.2980631090053282 -0.3905053011044263 0.0
0.3457197175282374 -0.4339220419014472 0.0
-0.0045649674984041 -0.0031566152557494 0.0
-0.0047595654667057 -0.0026570096052315 0.0
1.2810034859839614 -0.4615012642534655 0.0
1.3568611605169618 -0.6526425372971708 0.0
0.9464245943729637 -0.6320719642776944 0.0
0.7430618580533737 -0.4270669197861522 0.0
