# vtk DataFile Version 3.0
LucasCarvalhoTCC Results
ASCII

DATASET POLYDATA
FIELD FieldData 1
TIME 1 1 double
4.6000000000000005

POINTS 380 float
0.0 2.0 0.0
2.0 2.0 0.0
3.0 2.0 0.0
3.0 1.0 0.0
5.0 1.0 0.0
5.0 0.0 0.0
3.0 0.0 0.0
2.0 0.0 0.0
2.0 1.0 0.0
0.0 1.0 0.0
0.2643114543905713 2.0 0.0
0.5169795502969444 2.0 0.0
0.7585171880292413 2.0 0.0
0.9894145836600268 2.0 0.0
1.210140497826619 2.0 0.0
1.421143008568911 2.0 0.0
1.622850459538253 2.0 0.0
1.815672303789548 2.0 0.0
2.188552664328277 2.0 0.0
2.359329284173903 2.0 0.0
2.514005696104645 2.0 0.0
2.654099788331341 2.0 0.0
2.780986322989182 2.0 0.0
2.895910470953052 2.0 0.0
3.0 1.9 0.0
3.0 1.8 0.0
3.0 1.7 0.0
3.0 1.6 0.0
3.0 1.5 0.0
3.0 1.4 0.0
3.0 1.3 0.0
3.0 1.2 0.0
3.0 1.1 0.0
3.105031513416626 1.0 0.0
3.221094637894669 1.0 0.0
3.349348047908936 1.0 0.0
3.491072094154001 1.0 0.0
3.647681638607018 1.0 0.0
3.820740106959136 1.0 0.0
4.011975186625977 1.0 0.0
4.223295996958671 1.0 0.0
4.456812096249916 1.0 0.0
4.714854728122151 1.0 0.0
5.0 0.7500000000000003 0.0
5.0 0.5000000000000012 0.0
5.0 0.2500000000000011 0.0
4.735688545609428 0.0 0.0
4.483020449703056 0.0 0.0
4.241482811970759 0.0 0.0
4.010585416339973 0.0 0.0
3.789859502173381 0.0 0.0
3.578856991431089 0.0 0.0
3.377149540461747 0.0 0.0
3.184327696210452 0.0 0.0
2.811447335671723 0.0 0.0
2.640670715826097 0.0 0.0
2.485994303895355 0.0 0.0
2.345900211668659 0.0 0.0
2.219013677010818 0.0 0.0
2.104089529046948 0.0 0.0
2.0 0.1 0.0
2.0 0.2 0.0
2.0 0.3 0.0
2.0 0.4 0.0
2.0 0.5 0.0
2.0 0.6 0.0
2.0 0.7 0.0
2.0 0.8 0.0
2.0 0.9 0.0
1.894968486583374 1.0 0.0
1.77890536210533 1.0 0.0
1.650651952091063 1.0 0.0
1.508927905845999 1.0 0.0
1.352318361392982 1.0 0.0
1.179259893040864 1.0 0.0
0.9880248133740233 1.0 0.0
0.7767040030413299 1.0 0.0
0.5431879037500846 1.0 0.0
0.2851452718778493 1.0 0.0
0.0 1.25 0.0
0.0 1.499999999999999 0.0
0.0 1.749999999999999 0.0
2.426045913985508 1.348290599604586 0.0
2.562221387987337 0.6558377602558874 0.0
1.966703786708101 1.492474555319359 0.0
3.033486484223225 0.4973568340887861 0.0
2.371610747520728 0.97814425147097 0.0
2.648098402859118 1.648016516253387 0.0
2.351901597140882 0.3519834837466129 0.0
2.694321138879857 1.061432730999581 0.0
1.441644339445862 1.496646809257773 0.0
3.554831642064292 0.501744031268764 0.0
2.720742750697982 1.350625068836981 0.0
2.282037541072919 0.639419348257894 0.0
2.813390610951134 0.7911761792959446 0.0
2.310700631729327 1.679155452525512 0.0
2.688751528716965 0.3206838402855661 0.0
2.211165393176843 1.213708510063781 0.0
0.9449004170027906 1.496357611130017 0.0
4.05509958299721 0.5036423888699835 0.0
3.025501657200047 0.7528388163714679 0.0
1.714778657098197 1.300039655550584 0.0
1.958264922640818 1.245975101752485 0.0
2.206386339371814 0.8500000000000001 0.0
3.336706349465057 0.704398544338507 0.0
4.529565928894533 0.555233644424822 0.0
0.4704340711054673 1.444766355575178 0.0
2.186983355180128 1.461437746541105 0.0
2.553715879020142 0.8859594914241276 0.0
2.782212276375736 0.5474565156445963 0.0
2.500206140967324 1.148517546040804 0.0
2.803373162317882 1.783880361314082 0.0
2.196626837682118 0.2161196386859174 0.0
1.735623536927746 1.664129737658362 0.0
3.268802735993943 0.3358439745752063 0.0
2.799454045372581 1.51553500056848 0.0
2.18762015375897 0.4992029885790829 0.0
2.813478812948685 1.18678600527921 0.0
2.400994471757771 0.7612313552289275 0.0
2.405444563947088 0.5311203927463914 0.0
2.583195945356847 1.473216966241769 0.0
3.734210872783077 0.7260959952797862 0.0
1.256500988572085 1.265010492624376 0.0
2.938353069321001 0.2909212553641365 0.0
2.061245308362322 1.709221243241415 0.0
2.182240881432738 1.001025052084926 0.0
2.830214026212788 0.9796244234047695 0.0
2.49023894829247 1.787687811117195 0.0
2.50976105170753 0.2123121888828049 0.0
1.194806886820808 1.686899295332255 0.0
3.805193113179192 0.3131007046677451 0.0
2.655039231860651 1.208917360245127 0.0
1.493530449555064 1.231198576616718 0.0
2.345622594939228 1.152685186835846 0.0
2.41380980106708 1.521513100394759 0.0
2.58979513084283 0.4863225267637531 0.0
2.135472648094309 0.7246460081196311 0.0
2.912574128751924 0.660128736186259 0.0
2.866043013605144 1.353074765380587 0.0
0.6928324624395237 1.69170809873467 0.0
4.307167537560476 0.3082919012653306 0.0
2.071506740582853 1.128535871978767 0.0
0.6831902494895832 1.302725441792086 0.0
4.316809750510417 0.6972745582079137 0.0
2.85534466702333 1.667491236848871 0.0
2.141886244104996 0.336139391754002 0.0
1.447743165823209 1.773242752731258 0.0
3.554386585610856 0.224002072703283 0.0
2.96485662756902 0.8593908564801968 0.0
3.240425509636175 0.8099760775594669 0.0
2.088410584923666 1.339747073830609 0.0
3.277530767974837 0.4939020807639749 0.0
3.534313505233912 0.7935179117986669 0.0
2.546683861402325 1.011736398479819 0.0
2.664793655038503 0.758149595673951 0.0
2.7009922066801 0.9086021996324817 0.0
1.844652141496971 1.153158997353228 0.0
2.575910747861113 1.316876286520138 0.0
3.994328863599566 0.7454319923658932 0.0
1.005671136400434 1.254568007634107 0.0
1.722192091537185 1.482888323667831 0.0
2.644751416415203 1.850904811198953 0.0
2.355248583584797 0.1490951888010467 0.0
2.31560379269905 1.25706851182614 0.0
2.129697972466254 0.5864366202645266 0.0
2.417220568140766 0.6397160301847872 0.0
2.867945749403976 1.069821281672812 0.0
3.182303046124178 0.6739667261124369 0.0
4.702774994215813 0.2953677284017739 0.0
0.2972250057841874 1.704632271598226 0.0
2.90043748182062 0.4316738443013928 0.0
2.486081387366873 0.3514585853722887 0.0
2.513918612633127 1.648541414627711 0.0
2.086778258621772 1.563111332603502 0.0
4.025359850459486 0.2638518716814435 0.0
0.9746401495405139 1.736148128318556 0.0
3.116389458098145 0.2933651166122753 0.0
1.885410353788165 1.707062521230272 0.0
2.327134732627959 1.833634230002939 0.0
2.672865267372041 0.1663657699970617 0.0
1.675899428547673 1.15999616666306 0.0
1.858973331615206 1.373382723203102 0.0
2.860266039499884 1.862282581689995 0.0
2.139733960500116 0.1377174183100045 0.0
1.257473476073173 1.479081588926576 0.0
3.731624273377778 0.5208146070195914 0.0
2.115038607594509 0.9238947313642476 0.0
0.2734661728051435 1.270630989444945 0.0
4.726533827194856 0.7293690105550548 0.0
2.699965708650878 1.465007479364728 0.0
2.298365077320068 0.5341069340550768 0.0
2.510583000486659 0.7602856732279889 0.0
3.370667741214912 0.8392397884376295 0.0
3.067541604254986 0.8806352314757129 0.0
2.90073732483139 1.443475210354718 0.0
2.264071206758208 0.9501943312745662 0.0
2.278663096491763 0.7489636980394857 0.0
1.952511813454414 1.110576661474517 0.0
2.744352083917141 0.687787375233183 0.0
1.566252941493004 1.383661493752942 0.0
2.437660520624072 0.8703573012735125 0.0
2.904826075218911 1.261819176983655 0.0
2.305967018083784 1.391390767447104 0.0
2.105729326736999 0.8145314366030645 0.0
2.428967188976762 1.236966721617647 0.0
3.060475488407204 0.1442825789852263 0.0
1.934979199332455 1.852811714602595 0.0
2.095475260770118 0.4348597444661615 0.0
2.914777085426361 1.759093454264707 0.0
2.084827330449114 0.2414252069642749 0.0
2.207128288422204 1.315477221019454 0.0
2.658751426439581 0.5773232450959589 0.0
2.612380011409894 1.114144853433198 0.0
2.897371573983894 1.569769587751228 0.0
0.5001010519014215 1.226918930408543 0.0
4.499898948098578 0.7730810695914568 0.0
2.753086810589338 1.690362801865437 0.0
2.246793053318422 0.3097947118702842 0.0
3.391580469276819 0.5673489147038103 0.0
3.035026488699165 0.6179797538177514 0.0
2.449819864663089 1.055109427275025 0.0
2.27653308928065 1.054384468582349 0.0
2.794675693196835 1.418106589018447 0.0
2.778866980525137 1.083577784614141 0.0
2.244522876020972 0.1116738824400324 0.0
2.755477123979027 1.888326117559968 0.0
2.323887028942199 0.8604475039748537 0.0
2.204900210979926 1.747483509451062 0.0
2.794853185869193 0.2526222191943996 0.0
2.320767315286541 1.530441598510029 0.0
1.550828143561484 1.606851581022188 0.0
2.796593663741882 1.288013595743853 0.0
3.436143660897262 0.3940652474171653 0.0
2.682379445750112 0.4493639922429763 0.0
3.242313228541417 0.154845696987206 0.0
1.75965289115187 1.844031320058407 0.0
1.3642341383496 1.159631408929946 0.0
1.980047380836635 1.36362624976796 0.0
2.070303834520089 1.451946835577872 0.0
2.55866460451515 1.229901920133861 0.0
4.26844523535139 0.499131154814159 0.0
0.7315547646486098 1.500868845185841 0.0
2.716116351489881 1.570657861970705 0.0
2.283245236086922 0.4299499540566049 0.0
4.50573905238033 0.204273435313806 0.0
0.4942609476196695 1.795726564686194 0.0
3.605070352001925 0.644396355247622 0.0
3.171946621948212 0.9019117497969773 0.0
3.40309695214227 0.1789624633199048 0.0
1.59690304785773 1.821037536680094 0.0
4.776800700354217 0.5074282293075529 0.0
0.2231992996457826 1.492571770692447 0.0
1.293020597407515 1.839015256431498 0.0
3.706979402592485 0.1609847435685022 0.0
1.398281395597716 1.351857389185529 0.0
2.880181082677912 0.1378504756446906 0.0
2.119200639021148 1.861833157788504 0.0
2.408646939494887 0.2452196658480275 0.0
2.591353060505113 1.754780334151973 0.0
1.146570081566377 1.160946826906423 0.0
3.853429918433624 0.8390531730935771 0.0
2.920846657438631 1.149071660619678 0.0
2.101132283911678 1.226382957654413 0.0
2.903672483971366 0.7774662795474147 0.0
2.516386521935266 0.571665255016536 0.0
2.475412447847437 1.444413760085193 0.0
2.903041575637174 0.5510905120278109 0.0
3.666476299189054 0.8553176740217776 0.0
1.558137053653031 1.119389262041809 0.0
3.867595456948903 0.1475874639835382 0.0
1.132404543051097 1.852412536016462 0.0
2.635017655944937 0.9730281566682446 0.0
2.436667490139274 1.901171080200935 0.0
2.563332509860726 0.09882891979906516 0.0
2.091598337090247 1.040423151014485 0.0
0.8316881289508771 1.172977685150089 0.0
4.168311871049123 0.827022314849911 0.0
3.648565743761548 0.3681286963687066 0.0
1.355037313653319 1.636865536133179 0.0
2.58412781071005 1.576586299624529 0.0
2.41587218928995 0.4234137003754711 0.0
2.083716468691946 0.6634832154935376 0.0
1.843942294678346 1.256771801786488 0.0
[...]
POINT_DATA 380

VECTORS Velocity float
0.0000000000000000 0.0000000000000000 0.0
0.0000000000000000 0.0000000000000000 0.0
0.0000000000000000 0.0000000000000000 0.0
0.0000000000000000 0.0000000000000000 0.0
0.0000000000000000 0.0000000000000000 0.0
0.9186853617189056 -0.1330568872239143 0.0
0.0000000000000000 0.0000000000000000 0.0
0.0000000000000000 0.0000000000000000 0.0
0.0000000000000000 0.0000000000000000 0.0
0.0000000000000000 0.0000000000000000 0.0
0.0000000000000000 0.0000000000000000 0.0
0.0000000000000000 0.0000000000000000 0.0
0.0000000000000000 0.0000000000000000 0.0
0.0000000000000000 0.0000000000000000 0.0
0.0000000000000000 0.0000000000000000 0.0
0.0000000000000000 0.0000000000000000 0.0
0.0000000000000000 0.0000000000000000 0.0
0.0000000000000000 0.0000000000000000 0.0
0.0000000000000000 0.0000000000000000 0.0
0.0000000000000000 0.0000000000000000 0.0
0.0000000000000000 0.0000000000000000 0.0
0.0000000000000000 0.0000000000000000 0.0
0.0000000000000000 0.0000000000000000 0.0
0.0000000000000000 0.0000000000000000 0.0
0.0000000000000000 0.0000000000000000 0.0
0.0000000000000000 0.0000000000000000 0.0
0.0000000000000000 0.0000000000000000 0.0
0.0000000000000000 0.0000000000000000 0.0
0.0000000000000000 0.0000000000000000 0.0
0.0000000000000000 0.0000000000000000 0.0
0.0000000000000000 0.0000000000000000 0.0
0.0000000000000000 0.0000000000000000 0.0
0.0000000000000000 0.0000000000000000 0.0
0.0000000000000000 0.0000000000000000 0.0
0.0000000000000000 0.0000000000000000 0.0
0.0000000000000000 0.0000000000000000 0.0
0.0000000000000000 0.0000000000000000 0.0
0.0000000000000000 0.0000000000000000 0.0
0.0000000000000000 0.0000000000000000 0.0
0.0000000000000000 0.0000000000000000 0.0
0.0000000000000000 0.0000000000000000 0.0
0.0000000000000000 0.0000000000000000 0.0
0.0000000000000000 0.0000000000000000 0.0
1.1551817139562590 0.3642140812127190 0.0
0.7957331681586650 0.0634242779383067 0.0
1.1395819923740598 -0.2965045544282139 0.0
0.0000000000000000 0.0000000000000000 0.0
0.0000000000000000 0.0000000000000000 0.0
0.0000000000000000 0.0000000000000000 0.0
0.0000000000000000 0.0000000000000000 0.0
0.0000000000000000 0.0000000000000000 0.0
0.0000000000000000 0.0000000000000000 0.0
0.0000000000000000 0.0000000000000000 0.0
0.0000000000000000 0.0000000000000000 0.0
0.0000000000000000 0.0000000000000000 0.0
0.0000000000000000 0.0000000000000000 0.0
0.0000000000000000 0.0000000000000000 0.0
0.0000000000000000 0.0000000000000000 0.0
0.0000000000000000 0.0000000000000000 0.0
0.0000000000000000 0.0000000000000000 0.0
0.0000000000000000 0.0000000000000000 0.0
0.0000000000000000 0.0000000000000000 0.0
0.0000000000000000 0.0000000000000000 0.0
0.0000000000000000 0.0000000000000000 0.0
0.0000000000000000 0.0000000000000000 0.0
0.0000000000000000 0.0000000000000000 0.0
0.0000000000000000 0.0000000000000000 0.0
0.0000000000000000 0.0000000000000000 0.0
0.0000000000000000 0.0000000000000000 0.0
0.0000000000000000 0.0000000000000000 0.0
0.0000000000000000 0.0000000000000000 0.0
0.0000000000000000 0.0000000000000000 0.0
0.0000000000000000 0.0000000000000000 0.0
0.0000000000000000 0.0000000000000000 0.0
0.0000000000000000 0.0000000000000000 0.0
0.0000000000000000 0.0000000000000000 0.0
0.0000000000000000 0.0000000000000000 0.0
0.0000000000000000 0.0000000000000000 0.0
0.0000000000000000 0.0000000000000000 0.0
1.0000000000000000 0.0000000000000000 0.0
1.0000000000000000 0.0000000000000000 0.0
1.0000000000000000 0.0000000000000000 0.0
0.9232589128214256 -0.8315772757378900 0.0
0.8074624554091714 -0.8553005067330736 0.0
1.5171487816621416 -0.2562762938337996 0.0
1.4596574498162884 -0.2519644184300840 0.0
0.5892783198644129 -1.1984854006304719 0.0
0.2660309897260615 -0.2065122692364731 0.0
0.2264083927339783 -0.1956688390026358 0.0
0.5744249083404229 -1.2197476305316430 0.0
1.5744749175229467 -0.0764223693271360 0.0
1.6112631888878117 -0.1197300291494011 0.0
0.2740912556162988 -0.6909364243197850 0.0
0.2525804705224288 -0.6066726349688860 0.0
1.1628305280544151 -0.9913371263677300 0.0
0.7038927069605357 -0.2043119701477283 0.0
0.6620389525735155 -0.1910214145610454 0.0
1.1589745950980459 -0.9010215365898043 0.0
1.6001470782413361 -0.0195365706972065 0.0
1.5975309171720411 -0.0091048645546144 0.0
1.4943155631220277 -0.3498473114342910 0.0
1.4999395909642557 -0.0586200425706882 0.0
1.4356882798481183 -0.3103914156878622 0.0
0.2571102092378559 -0.8239135302898662 0.0
1.5173837334243589 -0.0672927119843497 0.0
1.5836303307722577 0.0097278762258687 0.0
1.5334866933581122 0.0359687936614334 0.0
1.2886655427159250 -0.4991451237632187 0.0
0.6962148565470911 -1.1984791081209696 0.0
1.1864168654135960 -0.4556676383142997 0.0
0.6863030461672646 -1.2085901450597460 0.0
0.0530601218300295 -0.0660536703424070 0.0
0.0436845691187354 -0.0568644680008632 0.0
1.1910130136589712 -0.0814664615436324 0.0
1.1140770519497882 -0.0923881312833940 0.0
0.1079841422843127 -0.3206230987748215 0.0
0.0774232760140216 -0.2582728221680500 0.0
0.1734596604270121 -0.7426547808127733 0.0
0.4943447804495402 -0.9727095109652881 0.0
0.4549491102970742 -0.5586274694341065 0.0
0.5264964932901754 -0.5654297898179395 0.0
1.3927960123378798 -0.0123918186669083 0.0
1.3075242489667918 -0.0808352794513033 0.0
0.8077635840134547 -0.1287832099713248 0.0
0.8775130254049672 -0.1312080786818634 0.0
0.5551559775704179 -0.9815391758365550 0.0
0.6238621131810238 -1.0917868238043182 0.0
0.2970440418048075 -0.0348619941861653 0.0
0.2743401555092088 -0.0392997308073599 0.0
1.2773130192484394 0.0117671443226506 0.0
1.2779324704782156 0.0077105516111554 0.0
0.4662974829005962 -1.0545350444536534 0.0
1.2568507258805217 0.0016438096480555 0.0
0.8820593987702138 -1.0971918854631502 0.0
0.7853548616767312 -0.4825104504245966 0.0
0.7955906121392712 -0.5233948567201728 0.0
0.0291875400199648 -0.3548959320652870 0.0
1.5087011586641350 -0.5450656572216583 0.0
0.0641023050460674 -0.3846460172232094 0.0
1.3446613761320787 0.0064528817881730 0.0
1.3450791970499307 0.0148969208045331 0.0
1.0950812751315413 -0.7373902160504305 0.0
1.3761507840978209 -0.0384079582922184 0.0
1.3735080524752490 -0.0565373900236478 0.0
0.0447100323752687 -0.1125686458557784 0.0
0.0388479744323994 -0.0949893705478964 0.0
0.7915849648154528 -0.0087117849855491 0.0
0.7745891438155900 -0.0273058545226585 0.0
1.2387723350892748 -0.5630144583717428 0.0
1.2445910449838715 -0.1003053834358617 0.0
1.4504746091922964 -0.5552620878613986 0.0
1.5356322288712891 -0.0928029744653448 0.0
1.2090006155689970 -0.0647023949517411 0.0
0.6635288912576439 -1.2637110162588636 0.0
0.9466812978926117 -0.9725831638902598 0.0
0.8075453503621366 -1.2404716232576523 0.0
1.0697909850584848 -0.0568829508004100 0.0
0.5961759894764861 -0.9053481690815954 0.0
1.0658798415507138 -0.0517174414593011 0.0
1.0677488147506269 -0.0526374920838640 0.0
1.5796948277969491 -0.0663026870180172 0.0
0.0915504042611197 -0.0382604640003509 0.0
0.0807183512082532 -0.0352599699878723 0.0
1.0497827047397024 -0.9148897018038353 0.0
0.0414747298872001 -0.1902650608885327 0.0
0.4857149045624062 -0.7475319097772981 0.0
0.2459998103784212 -0.7715776186840866 0.0
1.5666286221692820 -0.1609664846435881 0.0
1.2290401261125954 -0.2189120309644389 0.0
1.2102359733017238 -0.2003320553498872 0.0
1.1895959714396380 -0.2684098706786594 0.0
0.4056881570729566 -0.2259262090776773 0.0
0.4439944039208545 -0.2220519394650736 0.0
1.2725776364287886 -0.2946127056046444 0.0
1.0451229285678532 -0.0266198050967462 0.0
1.0430151127632685 -0.0274539939378874 0.0
0.9376283297822487 -0.1125321643837471 0.0
1.0133461843356129 -0.1171963516866429 0.0
0.2714312902106213 -0.0530972918756024 0.0
0.2592331938564335 -0.0494451346977432 0.0
0.8349949904051178 -0.0184760145949517 0.0
1.5830410183890260 -0.1494206740238507 0.0
0.0101960564078963 -0.0179612092217619 0.0
0.0082352588424321 -0.0149223918269866 0.0
1.5372897920554192 -0.0975887594403040 0.0
1.5698802027811389 -0.1288947412965119 0.0
0.1398762009044674 -0.4862367931659263 0.0
1.0959970322143089 0.2306201743066934 0.0
1.0936467898363562 0.2310916097482813 0.0
0.2745419982630554 -0.5094480313095082 0.0
0.2301091459923365 -0.4375693265864937 0.0
0.6761400317330405 -1.0553891331935323 0.0
0.9318438052041490 -0.0545785835994086 0.0
0.8773728634165483 -0.1756235131098764 0.0
0.0357353094406987 -0.1805134503118161 0.0
0.4703402568520417 -1.0983046862412558 0.0
0.2658736277909214 -0.8278801867509734 0.0
0.7773864935389445 -0.1228406982118556 0.0
1.1589716796848946 -0.8089764712264378 0.0
1.5613463403400587 -0.0487250143546242 0.0
0.5780043622577279 -1.1557849051059552 0.0
0.0309234738625384 -0.3121756875195019 0.0
1.1257653028682983 -0.6805520174641382 0.0
0.0696677352860247 -0.2891189503472000 0.0
0.8199083252764870 -1.0667770538800283 0.0
0.4055259085748830 -0.0213251183193321 0.0
0.4316358396963699 -0.0191655962115464 0.0
0.0363311774289227 -0.0909565691321366 0.0
0.0151332016115634 -0.0310611060040549 0.0
0.0124690762513393 -0.0255936804037981 0.0
1.2927355513764500 -0.7657225713017013 0.0
0.9834140550040039 -0.6604172637212644 0.0
0.5962111580246323 -1.2033885138607998 0.0
0.0247004057325762 -0.1150519979390282 0.0
0.8659886791166963 0.1645796939641840 0.0
0.8386673357963846 0.1312720772557125 0.0
0.1377254301536697 -0.1671992374881888 0.0
0.1166036532817854 -0.1473502742017079 0.0
1.6436098155188348 -0.1221910917325333 0.0
1.6077081923630712 -0.3168193706458451 0.0
0.6754469918477412 -1.2534927911770837 0.0
0.7093509119902639 -1.1331069565592984 0.0
0.1380294662462971 -0.4208078474177860 0.0
0.4218076747534405 -1.0630977309646474 0.0
0.0288262893210002 -0.0240688373076350 0.0
0.0338802332811894 -0.0273962782547375 0.0
0.4571468399801633 -1.0581281275331558 0.0
0.6496749485736504 -0.1387479409439028 0.0
0.6064182074324310 -0.1234372091407800 0.0
1.0007632967810873 -0.4438776218177664 0.0
1.3585473614179675 -0.0296246653075186 0.0
0.1585495623193500 -0.5924388816741992 0.0
1.3018607640863256 -0.0658474208564925 0.0
0.9455226799768107 -0.4183318622522479 0.0
0.5006462054835793 -0.0333519619476955 0.0
0.5285128439902702 -0.0360432265579825 0.0
0.8946057111215941 -0.0193247016797541 0.0
1.5429074173817821 -0.3415293585389093 0.0
1.4763818943252609 -0.4068716242855990 0.0
0.5950429307517540 -1.0809610620861496 0.0
1.6000755584873401 -0.0535671008763676 0.0
1.5899140449968567 -0.0450888740137357 0.0
0.2052882459216905 -0.3014243368073171 0.0
0.1734076769134093 -0.2699635689756349 0.0
0.7799815339305227 -0.1433712469399258 0.0
0.8008327353056924 -0.1598513456840049 0.0
1.5610671632598114 -0.0777191403746334 0.0
0.5604419837760973 -0.0554366604779695 0.0
0.6304789616444351 -0.0793648190281224 0.0
0.6584634315410773 -0.0803149410731718 0.0
1.2611518105175115 0.0575427267095231 0.0
1.2108940468682101 0.0466701168151540 0.0
0.6382433176791322 0.0333056557229178 0.0
0.6383906756593259 0.0301103199334832 0.0
1.4570605314201646 -0.0514119455354062 0.0
0.3099835281787538 -0.0558520585948219 0.0
0.3314293907510724 -0.0604455629031621 0.0
0.2187862646006744 -0.1149435902063541 0.0
0.2427615204735202 -0.1191948143608293 0.0
0.7328409481685473 0.0586664269806181 0.0
0.7341968179223513 0.1057074324920767 0.0
0.0448974294714643 -0.3452543101791395 0.0
1.3143657555050512 -0.6985124136766209 0.0
1.3483728929908632 -0.7258024824190323 0.0
0.6754590162288735 -0.6820453429943425 0.0
0.7799199526518639 -0.6198161255785691 0.0
1.4371792787079307 -0.4213461026176863 0.0
0.6079108831862008 0.0248557485251837 0.0
0.6291664616248531 -0.0156587239341800 0.0
0.5363830741069641 -0.1093435620392121 0.0
0.5388305136985651 -0.1068648410836539 0.0
0.6905675795542868 -1.2742305000718697 0.0
0.0924499015125593 -0.0255917181714507 0.0
0.0860011458970825 -0.0263498904165293 0.0
0.5651943767737478 -0.7068674219084151 0.0
0.6719815798602131 -0.0979104639196620 0.0
0.6705041500668891 -0.1057401219415981 0.0
1.3070441683164729 -0.1412148032280436 0.0
1.3136593551076945 -0.1129914174942088 0.0
0.4539270199646148 -0.3342567563115179 0.0
0.3878942877254281 -0.3283267108349000 0.0
0.0037312365994271 -0.1508007728196681 0.0
1.3665539336718282 -0.1400245287419057 0.0
0.6045506882282986 -0.7744784601893523 0.0
0.1131923088079432 -0.4103035336353106 0.0
0.4358604833279623 -0.7454675001612581 0.0
0.9749679543472810 -0.9481043027680380 0.0
0.9040894416639738 -1.1423278100426422 0.0
1.4973067915521219 -0.0659182419931828 0.0
1.4928727166413127 -0.0969275237559249 0.0
0.6537274424119299 -1.2240034557714561 0.0
1.0501984541583507 -0.2791602919058986 0.0
0.9952103083244818 -0.2273685366685892 0.0
0.5030407860834670 -0.1716346960958693 0.0
0.4790738937519322 -0.1762874125163644 0.0
1.5614364697757275 -0.1088450075662210 0.0
1.0012603361625896 -1.1039970806295998 0.0
0.4192510784557456 -1.0702550334110674 0.0
1.2134525362441788 -0.1678133903822888 0.0
1.5661315974285066 -0.0923672980931591 0.0
1.5756471881963479 -0.0977330915258920 0.0
1.2906322331631908 -0.1699586375532518 0.0
0.0918998920169102 -0.0117839585512144 0.0
0.1012661412685808 -0.0101835639144138 0.0
0.4211045035703079 0.0686424508008927 0.0
1.3632883653206334 -0.1371318645330075 0.0
1.3204332124918392 0.0374316552945559 0.0
0.4431037426113692 -0.9192274116826177 0.0
0.1016981347878200 -0.2230601030545669 0.0
0.0807874082619440 -0.1851219010445191 0.0
0.1418346722986213 -0.0842366491042690 0.0
0.1231588195190651 -0.0766016237571368 0.0
0.3692689522600870 -0.6517624037422604 0.0
0.0100440152908159 -0.1120275506963142 0.0
0.9261664998680151 -0.8929352409627894 0.0
0.5211295256522779 0.0366084592104031 0.0
0.5040665822634363 0.0190475405794955 0.0
1.4811712922211182 -0.0483366264383320 0.0
1.4810924948334765 -0.0599059976627016 0.0
0.9527705674918088 -1.0757872566174229 0.0
1.6057753948461655 -0.1649598467638956 0.0
0.4302515708733759 -0.0486468749586407 0.0
0.0139719920343589 -0.0385785983133819 0.0
0.0095749064440314 -0.0320574833364289 0.0
0.3770174625780254 -0.8134672234222442 0.0
0.0174996310328858 -0.1005155375806624 0.0
0.7359764888744181 -0.9684868529343850 0.0
1.4539324548031127 -0.1378193844021874 0.0
0.6418215085408301 -0.4360452012026819 0.0
0.5921876204690537 -0.4493011719631244 0.0
0.6420463275579322 -1.2375827513980666 0.0
0.6699115890810068 0.0780754430498562 0.0
0.6672326716394468 0.0808088796208692 0.0
0.8026062966227030 -1.1854203282193130 0.0
0.1297860368167502 -0.5847332976776130 0.0
0.1090947726064723 -0.4544482945459576 0.0
0.0096232835458842 -0.1087033292045882 0.0
0.8421340585177527 0.0649313599404701 0.0
0.8047632151733334 0.0969152502706246 0.0
0.8330158269809035 -0.0507541746171921 0.0
0.8045840515452640 -0.0670108021959708 0.0
0.3177251473119371 -0.8798557391138464 0.0
0.6369990682005932 -0.1457008479790352 0.0
0.7893883616718409 -1.0509264689606996 0.0
1.3749138721659380 -0.7753851948915462 0.0
0.5304513697199226 0.0850523044011870 0.0
1.4803925164580016 -0.0121808369249943 0.0
1.4842648688636877 -0.0081330848968751 0.0
1.0384504541684190 -0.9867870669223768 0.0
0.7472597161440998 -1.2053498477680875 0.0
1.3245886656475452 -0.1517896731043368 0.0
0.7190111025488559 -1.2200525093193642 0.0
0.0870871084860302 -0.3854007631455488 0.0
1.1766392842507853 -0.0518522918548126 0.0
0.3742505691986213 -0.9084044572063431 0.0
1.6562506276795592 -0.0898304826627098 0.0
0.4120941030456030 -0.0053439268062022 0.0
1.5813305329822773 -0.0860735203552771 0.0
1.5503876306466668 -0.0992779313133127 0.0
-0.0061132741012616 -0.0012898531803322 0.0
-0.0068391501208631 -0.0016690071122051 0.0
0.5346967909396086 0.0429524535245961 0.0
0.3406486092704465 -0.0424930869095984 0.0
-0.0031709789388492 -0.0056801788550618 0.0
-0.0031710949271788 -0.0067157259730891 0.0
0.5568377538403503 -0.0346284585897318 0.0
0.6426932695500286 -0.9148816022364582 0.0
0.5591483692768840 -0.0341138043557668 0.0
0.5533433736810660 -0.0270452077769199 0.0
0.6818980952841538 -0.3256496444242813 0.0
0.7369456608051136 -0.3232060318061165 0.0
0.6436018897222572 -0.8002044399821238 0.0
0.2923598639594458 -0.3881239961279618 0.0
0.3411564673920219 -0.4349996142898538 0.0
-0.0065624731594067 -0.0034675696807348 0.0
-0.0059583365517816 -0.0027894534675665 0.0
1.2758539589196749 -0.4568667393510628 0.0
1.3621325928988244 -0.6532974555741592 0.0
0.9511586245491565 -0.6408680085417545 0.0
0.7387281823791960 -0.4224337427909448 0.0
