# vtk DataFile Version 3.0
LucasCarvalhoTCC Results
ASCII

DATASET POLYDATA
FIELD FieldData 1
TIME 1 1 double
2.1

POINTS 380 float
0.0 2.0 0.0
2.0 2.0 0.0
3.0 2.0 0.0
3.0 1.0 0.0
5.0 1.0 0.0
5.0 0.0 0.0
3.0 0.0 0.0
2.0 0.0 0.0
2.0 1.0 0.0
0.0 1.0 0.0
0.2643114543905713 2.0 0.0
0.5169795502969444 2.0 0.0
0.7585171880292413 2.0 0.0
0.9894145836600268 2.0 0.0
1.210140497826619 2.0 0.0
1.421143008568911 2.0 0.0
1.622850459538253 2.0 0.0
1.815672303789548 2.0 0.0
2.188552664328277 2.0 0.0
2.359329284173903 2.0 0.0
2.514005696104645 2.0 0.0
2.654099788331341 2.0 0.0
2.780986322989182 2.0 0.0
2.895910470953052 2.0 0.0
3.0 1.9 0.0
3.0 1.8 0.0
3.0 1.7 0.0
3.0 1.6 0.0
3.0 1.5 0.0
3.0 1.4 0.0
3.0 1.3 0.0
3.0 1.2 0.0
3.0 1.1 0.0
3.105031513416626 1.0 0.0
3.221094637894669 1.0 0.0
3.349348047908936 1.0 0.0
3.491072094154001 1.0 0.0
3.647681638607018 1.0 0.0
3.820740106959136 1.0 0.0
4.011975186625977 1.0 0.0
4.223295996958671 1.0 0.0
4.456812096249916 1.0 0.0
4.714854728122151 1.0 0.0
5.0 0.7500000000000003 0.0
5.0 0.5000000000000012 0.0
5.0 0.2500000000000011 0.0
4.735688545609428 0.0 0.0
4.483020449703056 0.0 0.0
4.241482811970759 0.0 0.0
4.010585416339973 0.0 0.0
3.789859502173381 0.0 0.0
3.578856991431089 0.0 0.0
3.377149540461747 0.0 0.0
3.184327696210452 0.0 0.0
2.811447335671723 0.0 0.0
2.640670715826097 0.0 0.0
2.485994303895355 0.0 0.0
2.345900211668659 0.0 0.0
2.219013677010818 0.0 0.0
2.104089529046948 0.0 0.0
2.0 0.1 0.0
2.0 0.2 0.0
2.0 0.3 0.0
2.0 0.4 0.0
2.0 0.5 0.0
2.0 0.6 0.0
2.0 0.7 0.0
2.0 0.8 0.0
2.0 0.9 0.0
1.894968486583374 1.0 0.0
1.77890536210533 1.0 0.0
1.650651952091063 1.0 0.0
1.508927905845999 1.0 0.0
1.352318361392982 1.0 0.0
1.179259893040864 1.0 0.0
0.9880248133740233 1.0 0.0
0.7767040030413299 1.0 0.0
0.5431879037500846 1.0 0.0
0.2851452718778493 1.0 0.0
0.0 1.25 0.0
0.0 1.499999999999999 0.0
0.0 1.749999999999999 0.0
2.426045913985508 1.348290599604586 0.0
2.562221387987337 0.6558377602558874 0.0
1.966703786708101 1.492474555319359 0.0
3.033486484223225 0.4973568340887861 0.0
2.371610747520728 0.97814425147097 0.0
2.648098402859118 1.648016516253387 0.0
2.351901597140882 0.3519834837466129 0.0
2.694321138879857 1.061432730999581 0.0
1.441644339445862 1.496646809257773 0.0
3.554831642064292 0.501744031268764 0.0
2.720742750697982 1.350625068836981 0.0
2.282037541072919 0.639419348257894 0.0
2.813390610951134 0.7911761792959446 0.0
2.310700631729327 1.679155452525512 0.0
2.688751528716965 0.3206838402855661 0.0
2.211165393176843 1.213708510063781 0.0
0.9449004170027906 1.496357611130017 0.0
4.05509958299721 0.5036423888699835 0.0
3.025501657200047 0.7528388163714679 0.0
1.714778657098197 1.300039655550584 0.0
1.958264922640818 1.245975101752485 0.0
2.206386339371814 0.8500000000000001 0.0
3.336706349465057 0.704398544338507 0.0
4.529565928894533 0.555233644424822 0.0
0.4704340711054673 1.444766355575178 0.0
2.186983355180128 1.461437746541105 0.0
2.553715879020142 0.8859594914241276 0.0
2.782212276375736 0.5474565156445963 0.0
2.500206140967324 1.148517546040804 0.0
2.803373162317882 1.783880361314082 0.0
2.196626837682118 0.2161196386859174 0.0
1.735623536927746 1.664129737658362 0.0
3.268802735993943 0.3358439745752063 0.0
2.799454045372581 1.51553500056848 0.0
2.18762015375897 0.4992029885790829 0.0
2.813478812948685 1.18678600527921 0.0
2.400994471757771 0.7612313552289275 0.0
2.405444563947088 0.5311203927463914 0.0
2.583195945356847 1.473216966241769 0.0
3.734210872783077 0.7260959952797862 0.0
1.256500988572085 1.265010492624376 0.0
2.938353069321001 0.2909212553641365 0.0
2.061245308362322 1.709221243241415 0.0
2.182240881432738 1.001025052084926 0.0
2.830214026212788 0.9796244234047695 0.0
2.49023894829247 1.787687811117195 0.0
2.50976105170753 0.2123121888828049 0.0
1.194806886820808 1.686899295332255 0.0
3.805193113179192 0.3131007046677451 0.0
2.655039231860651 1.208917360245127 0.0
1.493530449555064 1.231198576616718 0.0
2.345622594939228 1.152685186835846 0.0
2.41380980106708 1.521513100394759 0.0
2.58979513084283 0.4863225267637531 0.0
2.135472648094309 0.7246460081196311 0.0
2.912574128751924 0.660128736186259 0.0
2.866043013605144 1.353074765380587 0.0
0.6928324624395237 1.69170809873467 0.0
4.307167537560476 0.3082919012653306 0.0
2.071506740582853 1.128535871978767 0.0
0.6831902494895832 1.302725441792086 0.0
4.316809750510417 0.6972745582079137 0.0
2.85534466702333 1.667491236848871 0.0
2.141886244104996 0.336139391754002 0.0
1.447743165823209 1.773242752731258 0.0
3.554386585610856 0.224002072703283 0.0
2.96485662756902 0.8593908564801968 0.0
3.240425509636175 0.8099760775594669 0.0
2.088410584923666 1.339747073830609 0.0
3.277530767974837 0.4939020807639749 0.0
3.534313505233912 0.7935179117986669 0.0
2.546683861402325 1.011736398479819 0.0
2.664793655038503 0.758149595673951 0.0
2.7009922066801 0.9086021996324817 0.0
1.844652141496971 1.153158997353228 0.0
2.575910747861113 1.316876286520138 0.0
3.994328863599566 0.7454319923658932 0.0
1.005671136400434 1.254568007634107 0.0
1.722192091537185 1.482888323667831 0.0
2.644751416415203 1.850904811198953 0.0
2.355248583584797 0.1490951888010467 0.0
2.31560379269905 1.25706851182614 0.0
2.129697972466254 0.5864366202645266 0.0
2.417220568140766 0.6397160301847872 0.0
2.867945749403976 1.069821281672812 0.0
3.182303046124178 0.6739667261124369 0.0
4.702774994215813 0.2953677284017739 0.0
0.2972250057841874 1.704632271598226 0.0
2.90043748182062 0.4316738443013928 0.0
2.486081387366873 0.3514585853722887 0.0
2.513918612633127 1.648541414627711 0.0
2.086778258621772 1.563111332603502 0.0
4.025359850459486 0.2638518716814435 0.0
0.9746401495405139 1.736148128318556 0.0
3.116389458098145 0.2933651166122753 0.0
1.885410353788165 1.707062521230272 0.0
2.327134732627959 1.833634230002939 0.0
2.672865267372041 0.1663657699970617 0.0
1.675899428547673 1.15999616666306 0.0
1.858973331615206 1.373382723203102 0.0
2.860266039499884 1.862282581689995 0.0
2.139733960500116 0.1377174183100045 0.0
1.257473476073173 1.479081588926576 0.0
3.731624273377778 0.5208146070195914 0.0
2.115038607594509 0.9238947313642476 0.0
0.2734661728051435 1.270630989444945 0.0
4.726533827194856 0.7293690105550548 0.0
2.699965708650878 1.465007479364728 0.0
2.298365077320068 0.5341069340550768 0.0
2.510583000486659 0.7602856732279889 0.0
3.370667741214912 0.8392397884376295 0.0
3.067541604254986 0.8806352314757129 0.0
2.90073732483139 1.443475210354718 0.0
2.264071206758208 0.9501943312745662 0.0
2.278663096491763 0.7489636980394857 0.0
1.952511813454414 1.110576661474517 0.0
2.744352083917141 0.687787375233183 0.0
1.566252941493004 1.383661493752942 0.0
2.437660520624072 0.8703573012735125 0.0
2.904826075218911 1.261819176983655 0.0
2.305967018083784 1.391390767447104 0.0
2.105729326736999 0.8145314366030645 0.0
2.428967188976762 1.236966721617647 0.0
3.060475488407204 0.1442825789852263 0.0
1.934979199332455 1.852811714602595 0.0
2.095475260770118 0.4348597444661615 0.0
2.914777085426361 1.759093454264707 0.0
2.084827330449114 0.2414252069642749 0.0
2.207128288422204 1.315477221019454 0.0
2.658751426439581 0.5773232450959589 0.0
2.612380011409894 1.114144853433198 0.0
2.897371573983894 1.569769587751228 0.0
0.5001010519014215 1.226918930408543 0.0
4.499898948098578 0.7730810695914568 0.0
2.753086810589338 1.690362801865437 0.0
2.246793053318422 0.3097947118702842 0.0
3.391580469276819 0.5673489147038103 0.0
3.035026488699165 0.6179797538177514 0.0
2.449819864663089 1.055109427275025 0.0
2.27653308928065 1.054384468582349 0.0
2.794675693196835 1.418106589018447 0.0
2.778866980525137 1.083577784614141 0.0
2.244522876020972 0.1116738824400324 0.0
2.755477123979027 1.888326117559968 0.0
2.323887028942199 0.8604475039748537 0.0
2.204900210979926 1.747483509451062 0.0
2.794853185869193 0.2526222191943996 0.0
2.320767315286541 1.530441598510029 0.0
1.550828143561484 1.606851581022188 0.0
2.796593663741882 1.288013595743853 0.0
3.436143660897262 0.3940652474171653 0.0
2.682379445750112 0.4493639922429763 0.0
3.242313228541417 0.154845696987206 0.0
1.75965289115187 1.844031320058407 0.0
1.3642341383496 1.159631408929946 0.0
1.980047380836635 1.36362624976796 0.0
2.070303834520089 1.451946835577872 0.0
2.55866460451515 1.229901920133861 0.0
4.26844523535139 0.499131154814159 0.0
0.7315547646486098 1.500868845185841 0.0
2.716116351489881 1.570657861970705 0.0
2.283245236086922 0.4299499540566049 0.0
4.50573905238033 0.204273435313806 0.0
0.4942609476196695 1.795726564686194 0.0
3.605070352001925 0.644396355247622 0.0
3.171946621948212 0.9019117497969773 0.0
3.40309695214227 0.1789624633199048 0.0
1.59690304785773 1.821037536680094 0.0
4.776800700354217 0.5074282293075529 0.0
0.2231992996457826 1.492571770692447 0.0
1.293020597407515 1.839015256431498 0.0
3.706979402592485 0.1609847435685022 0.0
1.398281395597716 1.351857389185529 0.0
2.880181082677912 0.1378504756446906 0.0
2.119200639021148 1.861833157788504 0.0
2.408646939494887 0.2452196658480275 0.0
2.591353060505113 1.754780334151973 0.0
1.146570081566377 1.160946826906423 0.0
3.853429918433624 0.8390531730935771 0.0
2.920846657438631 1.149071660619678 0.0
2.101132283911678 1.226382957654413 0.0
2.903672483971366 0.7774662795474147 0.0
2.516386521935266 0.571665255016536 0.0
2.475412447847437 1.444413760085193 0.0
2.903041575637174 0.5510905120278109 0.0
3.666476299189054 0.8553176740217776 0.0
1.558137053653031 1.119389262041809 0.0
3.867595456948903 0.1475874639835382 0.0
1.132404543051097 1.852412536016462 0.0
2.635017655944937 0.9730281566682446 0.0
2.436667490139274 1.901171080200935 0.0
2.563332509860726 0.09882891979906516 0.0
2.091598337090247 1.040423151014485 0.0
0.8316881289508771 1.172977685150089 0.0
4.168311871049123 0.827022314849911 0.0
3.648565743761548 0.3681286963687066 0.0
1.355037313653319 1.636865536133179 0.0
2.58412781071005 1.576586299624529 0.0
2.41587218928995 0.4234137003754711 0.0
2.083716468691946 0.6634832154935376 0.0
1.843942294678346 1.256771801786488 0.0
[...]
POINT_DATA 380

VECTORS Velocity float
0.0000000000000000 0.0000000000000000 0.0
0.0000000000000000 0.0000000000000000 0.0
0.0000000000000000 0.0000000000000000 0.0
0.0000000000000000 0.0000000000000000 0.0
0.0000000000000000 0.0000000000000000 0.0
0.9186838748138826 -0.1329818427581480 0.0
0.0000000000000000 0.0000000000000000 0.0
0.0000000000000000 0.0000000000000000 0.0
0.0000000000000000 0.0000000000000000 0.0
0.0000000000000000 0.0000000000000000 0.0
0.0000000000000000 0.0000000000000000 0.0
0.0000000000000000 0.0000000000000000 0.0
0.0000000000000000 0.0000000000000000 0.0
0.0000000000000000 0.0000000000000000 0.0
0.0000000000000000 0.0000000000000000 0.0
0.0000000000000000 0.0000000000000000 0.0
0.0000000000000000 0.0000000000000000 0.0
0.0000000000000000 0.0000000000000000 0.0
0.0000000000000000 0.0000000000000000 0.0
0.0000000000000000 0.0000000000000000 0.0
0.0000000000000000 0.0000000000000000 0.0
0.0000000000000000 0.0000000000000000 0.0
0.0000000000000000 0.0000000000000000 0.0
0.0000000000000000 0.0000000000000000 0.0
0.0000000000000000 0.0000000000000000 0.0
0.0000000000000000 0.0000000000000000 0.0
0.0000000000000000 0.0000000000000000 0.0
0.0000000000000000 0.0000000000000000 0.0
0.0000000000000000 0.0000000000000000 0.0
0.0000000000000000 0.0000000000000000 0.0
0.0000000000000000 0.0000000000000000 0.0
0.0000000000000000 0.0000000000000000 0.0
0.0000000000000000 0.0000000000000000 0.0
0.0000000000000000 0.0000000000000000 0.0
0.0000000000000000 0.0000000000000000 0.0
0.0000000000000000 0.0000000000000000 0.0
0.0000000000000000 0.0000000000000000 0.0
0.0000000000000000 0.0000000000000000 0.0
0.0000000000000000 0.0000000000000000 0.0
0.0000000000000000 0.0000000000000000 0.0
0.0000000000000000 0.0000000000000000 0.0
0.0000000000000000 0.0000000000000000 0.0
0.0000000000000000 0.0000000000000000 0.0
1.1553953978559490 0.3633014115255990 0.0
0.7957580885345686 0.0618283572241247 0.0
1.1393707592929287 -0.2973895883900677 0.0
0.0000000000000000 0.0000000000000000 0.0
0.0000000000000000 0.0000000000000000 0.0
0.0000000000000000 0.0000000000000000 0.0
0.0000000000000000 0.0000000000000000 0.0
0.0000000000000000 0.0000000000000000 0.0
0.0000000000000000 0.0000000000000000 0.0
0.0000000000000000 0.0000000000000000 0.0
0.0000000000000000 0.0000000000000000 0.0
0.0000000000000000 0.0000000000000000 0.0
0.0000000000000000 0.0000000000000000 0.0
0.0000000000000000 0.0000000000000000 0.0
0.0000000000000000 0.0000000000000000 0.0
0.0000000000000000 0.0000000000000000 0.0
0.0000000000000000 0.0000000000000000 0.0
0.0000000000000000 0.0000000000000000 0.0
0.0000000000000000 0.0000000000000000 0.0
0.0000000000000000 0.0000000000000000 0.0
0.0000000000000000 0.0000000000000000 0.0
0.0000000000000000 0.0000000000000000 0.0
0.0000000000000000 0.0000000000000000 0.0
0.0000000000000000 0.0000000000000000 0.0
0.0000000000000000 0.0000000000000000 0.0
0.0000000000000000 0.0000000000000000 0.0
0.0000000000000000 0.0000000000000000 0.0
0.0000000000000000 0.0000000000000000 0.0
0.0000000000000000 0.0000000000000000 0.0
0.0000000000000000 0.0000000000000000 0.0
0.0000000000000000 0.0000000000000000 0.0
0.0000000000000000 0.0000000000000000 0.0
0.0000000000000000 0.0000000000000000 0.0
0.0000000000000000 0.0000000000000000 0.0
0.0000000000000000 0.0000000000000000 0.0
0.0000000000000000 0.0000000000000000 0.0
1.0000000000000000 0.0000000000000000 0.0
1.0000000000000000 0.0000000000000000 0.0
1.0000000000000000 0.0000000000000000 0.0
0.8549869217215142 -0.7365154267710992 0.0
0.7571838765308463 -0.7472573322384980 0.0
1.4751638248311951 -0.2587130614741076 0.0
1.4157746659354773 -0.2589147801945014 0.0
0.5703854781713691 -1.1362477384814254 0.0
0.3318771227920576 -0.2002533093564443 0.0
0.2972307858117804 -0.2012142275178865 0.0
0.5521661624058837 -1.1744245930456507 0.0
1.5703053937306131 -0.0809529700068323 0.0
1.6048297598282659 -0.1137077171043653 0.0
0.2793724764854416 -0.6971447584678346 0.0
0.2596133542782666 -0.6496384322824666 0.0
1.1214439323881416 -1.0042247059622547 0.0
0.7206961201267168 -0.1816446835547061 0.0
0.6958342302339601 -0.1732691385221918 0.0
1.1276204235701788 -0.9083378200062684 0.0
1.5998435506041047 -0.0168305542356993 0.0
1.5972842340536995 -0.0065046422013915 0.0
1.4932783525448889 -0.3807652498038176 0.0
1.4979837566913248 -0.0821335671169248 0.0
1.4523277802418317 -0.3430973498623544 0.0
0.2418565416087457 -0.9190176133283967 0.0
1.5068865262715185 -0.0778702103380632 0.0
1.5838410844262958 0.0097060987768868 0.0
1.5335334207458222 0.0356402340875146 0.0
1.2229334392789339 -0.4741959641440924 0.0
0.6534011826667510 -1.0515988219272026 0.0
1.1251907523844988 -0.4248068887540578 0.0
0.6472572655788229 -1.0580845858436871 0.0
0.1043119849252284 -0.0671545859009894 0.0
0.0879734036507698 -0.0664735658048522 0.0
1.1857055466397599 -0.0811576003054815 0.0
1.1274320339212047 -0.0847376824680589 0.0
0.1397330209158049 -0.3672649217486670 0.0
0.1051673430280172 -0.3174636753503665 0.0
0.1575920082045886 -0.8235240086124939 0.0
0.4734236440506504 -0.9134764571790790 0.0
0.4742094802233173 -0.5274342884777057 0.0
0.5288898391365229 -0.5106561489401431 0.0
1.3879029138162968 -0.0110597885953742 0.0
1.3044215329388282 -0.0811672549878322 0.0
0.8292446683529131 -0.1233846655972345 0.0
0.8793405501248841 -0.1220595908170055 0.0
0.5718395308497769 -1.0823163704140144 0.0
0.6215122066374833 -1.1838213197665965 0.0
0.3443846710420772 -0.0275305040569892 0.0
0.3289135769925232 -0.0324518118932490 0.0
1.2802477527404386 0.0137705540770684 0.0
1.2811932296055450 0.0116364535655608 0.0
0.4469624602001218 -0.9771150862337609 0.0
1.2570979792534036 -0.0056300726948468 0.0
0.8404746951050204 -1.0322198067743553 0.0
0.7646831577505042 -0.4224995089230660 0.0
0.7835628623197585 -0.4597393595494246 0.0
-0.0009591193735015 -0.4424287229408412 0.0
1.4586503578209060 -0.5669094046337134 0.0
0.0579599041335812 -0.4578428147193175 0.0
1.3442462936076411 0.0067299197449705 0.0
1.3442185080695808 0.0154074284105304 0.0
1.1506273348513609 -0.8141544696864658 0.0
1.3765132333256651 -0.0383006471408355 0.0
1.3743867472332689 -0.0559881643527151 0.0
0.0893507943781105 -0.1290940999690796 0.0
0.0767430307605166 -0.1214736274152554 0.0
0.7946992729137885 -0.0092073239535460 0.0
0.7834665319493944 -0.0235039951929226 0.0
1.2782431210413017 -0.6188723862027542 0.0
1.2482104643517347 -0.1112994255570920 0.0
1.4034613060050569 -0.5690191403727193 0.0
1.5217841277544533 -0.0891759827309706 0.0
1.2031241807330815 -0.0641644060957655 0.0
0.6252867690172589 -1.1087449277728065 0.0
0.8800081093277889 -0.8803300007770735 0.0
0.7736022173016881 -1.1797467676166935 0.0
1.1158146948213494 -0.0728785833252401 0.0
0.5629546234843888 -0.8011138694997236 0.0
1.0651925087618592 -0.0504225931916543 0.0
1.0668043788463022 -0.0509438667307283 0.0
1.5632636475559365 -0.0786608503610121 0.0
0.1239443909534249 -0.0404515771849911 0.0
0.1142254897683500 -0.0395795002405471 0.0
0.9865328710123206 -0.8586942024651510 0.0
0.0453029303004631 -0.2476475864486979 0.0
0.4817585018020584 -0.6927483418881649 0.0
0.2289398004304921 -0.8794391949510755 0.0
1.5471867766947422 -0.1817320635893936 0.0
1.2281399142694676 -0.2192176398804879 0.0
1.2100220711899208 -0.2005306296843292 0.0
1.1626201260832221 -0.2657624845897169 0.0
0.4659477673454984 -0.2113632418965658 0.0
0.4932466318921731 -0.2013155740126538 0.0
1.2348175061047670 -0.2863824838891723 0.0
1.0459475802752394 -0.0246365972042923 0.0
1.0441180234113625 -0.0255133201843157 0.0
0.9574433938116298 -0.1066009550930906 0.0
1.0110085296866276 -0.1105474718280513 0.0
0.2942794184404416 -0.0489381422106222 0.0
0.2882041155210391 -0.0470718940115803 0.0
0.8494894127725749 -0.0273431531672365 0.0
1.5576260630147805 -0.1683269608497953 0.0
0.0484019737328994 -0.0112565887942257 0.0
0.0376880931460830 -0.0128781539541956 0.0
1.5360491695626062 -0.0969331928820222 0.0
1.5674573667557565 -0.1229922359818126 0.0
0.1276456432227505 -0.5708559842216032 0.0
1.0961858144095278 0.2303734864502926 0.0
1.0945500817510128 0.2306035431576321 0.0
0.2988347742300944 -0.5110267838692174 0.0
0.2627881902776160 -0.4696406191348364 0.0
0.6356388711559776 -0.9288716834334193 0.0
0.9293024572789076 -0.0587266733685544 0.0
0.9030910073928977 -0.1942072777906776 0.0
0.0422090475734986 -0.2250187465524275 0.0
0.4679350846266789 -1.1417162169987254 0.0
0.2509585953134601 -0.8658628801213657 0.0
0.8271704928565732 -0.1349615006534641 0.0
1.0812594065438448 -0.7612421315692010 0.0
1.5550630530347405 -0.0610948108263471 0.0
0.5505271899076956 -1.0490948412790977 0.0
0.0129212805414506 -0.3747750504194673 0.0
1.0490001492440946 -0.6246642609550748 0.0
0.0517711530209574 -0.3554012254833603 0.0
0.7654561822823511 -0.9483489364102662 0.0
0.4247608422884523 -0.0200131822126391 0.0
0.4386046942486659 -0.0170683218911346 0.0
0.0623738766326498 -0.1243402738478574 0.0
0.0546925725397952 -0.0314056783413716 0.0
0.0433290282612246 -0.0303601430598381 0.0
1.2320726611372401 -0.7553692931468613 0.0
0.9265737756811728 -0.5874332290179196 0.0
0.5700008821909068 -1.0859122591976373 0.0
0.0469752179924199 -0.1432702954573957 0.0
0.8663841357753782 0.1644693840885340 0.0
0.8397439308773516 0.1313787520736723 0.0
0.2006271533509480 -0.1762712549774724 0.0
0.1769109453817906 -0.1707002980759599 0.0
1.6292421707105060 -0.1186568203256621 0.0
1.5618808906230388 -0.3358921325668222 0.0
0.6422372909990111 -1.1162274354969342 0.0
0.7039569328984361 -1.1456664093556721 0.0
0.1524782089192895 -0.4744221955903244 0.0
0.4108175529569046 -1.1193368150679297 0.0
0.0530027272262450 -0.0291930394884882 0.0
0.0606137475324503 -0.0299365452886648 0.0
0.4433438461071492 -1.0577930997756773 0.0
0.6696480411570797 -0.1289628896162952 0.0
0.6429333221693543 -0.1190613463678541 0.0
0.9617582867988406 -0.3972419059745709 0.0
1.3558442454809196 -0.0342154872307931 0.0
0.1540702545961228 -0.6569063121679237 0.0
1.3070576591552543 -0.0582430885588070 0.0
0.9268918354609782 -0.3757278293673653 0.0
0.5155591138125897 -0.0313082271927830 0.0
0.5309555854899408 -0.0346055047832177 0.0
0.8928458691928473 -0.0218808519806929 0.0
1.5085643561127919 -0.3612224185355827 0.0
1.4212044893020106 -0.4051898793525838 0.0
0.5646454327375044 -0.9507987247149343 0.0
1.5997937290220396 -0.0523454257522486 0.0
1.5897190019958118 -0.0443236922915288 0.0
0.2592611427994390 -0.3128257425783101 0.0
0.2276218802813832 -0.3040643670194941 0.0
0.7791364523236137 -0.1430738712772118 0.0
0.8005492015897138 -0.1598520715799252 0.0
1.5531528828567778 -0.0748165012025048 0.0
0.5724457302733259 -0.0646978789881523 0.0
0.6423099560775364 -0.0768565400724656 0.0
0.6612783759166317 -0.0809680311524957 0.0
1.2611007443564244 0.0565921328191755 0.0
1.2108706504773135 0.0463732512173834 0.0
0.6415040070165259 0.0339940488869386 0.0
0.6431539353160014 0.0325496978402984 0.0
1.4544582500028056 -0.0566318683138556 0.0
0.3295556137391702 -0.0546232088014597 0.0
0.3417109434964974 -0.0571275271317148 0.0
0.2808162137138966 -0.1167592896008083 0.0
0.2999125848092978 -0.1161616477691964 0.0
0.7309345966516182 0.0593840771697606 0.0
0.7328136150431382 0.1059678063583152 0.0
0.0152624463962252 -0.4106549561202092 0.0
1.3122794315450843 -0.7335642260871702 0.0
1.3348169469239792 -0.7721012599619759 0.0
0.6604676493420520 -0.6073570083643974 0.0
0.7382295790611000 -0.5372334492930797 0.0
1.3719765693394090 -0.4202267713786397 0.0
0.6061613132201183 0.0249571111476209 0.0
0.6343290014171109 -0.0214386299631968 0.0
0.5385348431636321 -0.1082465663196792 0.0
0.5409848086828286 -0.1061327742974649 0.0
0.6532278673916185 -1.1604099357562863 0.0
0.1109935606405768 -0.0246691322772704 0.0
0.1065478308175999 -0.0256759326905201 0.0
0.5979750761253018 -0.8044467942989233 0.0
0.6720803113683711 -0.0973428562378428 0.0
0.6708768539061578 -0.1051684306277406 0.0
1.3119216250146348 -0.1335195241575126 0.0
1.3161540735544655 -0.1132538706040145 0.0
0.4961167549257079 -0.3095457709526788 0.0
0.4424510277428202 -0.3146360079765138 0.0
-0.0172318608724600 -0.2011177209556702 0.0
1.3760106453073646 -0.1673090134158878 0.0
0.6253538908350882 -0.8806096236597885 0.0
0.1277674056293057 -0.4770110322186124 0.0
0.4328971234786739 -0.6862506893980708 0.0
0.9981040307647840 -1.0187178984466503 0.0
0.8837934153561345 -1.1658311440998943 0.0
1.4947417329323538 -0.0626483320846916 0.0
1.4907460147827822 -0.0939420152541470 0.0
0.6353377598699212 -1.2153320836160018 0.0
1.0279612545371584 -0.2544153040345722 0.0
0.9862097171790155 -0.2100184285292999 0.0
0.5454301367715066 -0.1533282934643572 0.0
0.5333916792960786 -0.1608924776567633 0.0
1.5509050926885757 -0.1078959242378211 0.0
0.9467931938280215 -1.0543367682480140 0.0
0.4017106673985137 -1.0575346054469723 0.0
1.2086032343618875 -0.1672729270243358 0.0
1.5665202389532691 -0.0889739537810780 0.0
1.5759469703008746 -0.0935104921983682 0.0
1.2677834003718493 -0.1644565516746948 0.0
0.1196070509320481 -0.0085501920709495 0.0
0.1267967135032650 -0.0066726847048746 0.0
0.4266503761966597 0.0656576014045332 0.0
1.3537601104990238 -0.1343284036010226 0.0
1.3262461087035187 0.0215852410802594 0.0
0.4257420294881580 -0.8508634285810519 0.0
0.1521277202407424 -0.2509762737482034 0.0
0.1268420664681568 -0.2275157056384312 0.0
0.2014262100868928 -0.0826402057997926 0.0
0.1820768151523211 -0.0827602038063463 0.0
0.3792706104886671 -0.6435824939903982 0.0
-0.0151672384367223 -0.1452888162006151 0.0
0.8578807229465978 -0.7982223568452060 0.0
0.5215514139441946 0.0366257687327916 0.0
0.5048441577010451 0.0192328896084461 0.0
1.4808609266273134 -0.0470622357217770 0.0
1.4810242776007281 -0.0585665026427744 0.0
0.9228160497187905 -1.0797155076154512 0.0
1.5671763753966743 -0.1777574982141088 0.0
0.4299746528668155 -0.0492317919946932 0.0
0.0479136021595667 -0.0492682927182556 0.0
0.0360112433727540 -0.0450518280106791 0.0
0.3639588754291330 -0.8029986322460284 0.0
0.0297850791090886 -0.1404458083691658 0.0
0.6883003529691102 -0.8409895631278749 0.0
1.4299631827864105 -0.1378976100549798 0.0
0.6493725250628151 -0.3843865501671206 0.0
0.6139031811321053 -0.4092465539660395 0.0
0.6069724389053627 -1.0987011911864644 0.0
0.6700323555999305 0.0785603670211009 0.0
0.6671057433351933 0.0811631633592090 0.0
0.7527645984175194 -1.0665627015638148 0.0
0.1153921353883293 -0.6792900955461920 0.0
0.1040465914696251 -0.5354151559417620 0.0
-0.0017047658540573 -0.1377419208253679 0.0
0.8422339436428941 0.0648662498146131 0.0
0.8051636480857746 0.0965033240759424 0.0
0.8329285785021427 -0.0508365241564442 0.0
0.8042221400962587 -0.0674878730231997 0.0
0.3069895778807959 -0.8910096120416567 0.0
0.6789201124572645 -0.1641189026454950 0.0
0.7372193583636297 -0.9233688477385913 0.0
1.3210573809222279 -0.7764161375977207 0.0
0.5494086672856143 0.0821641233949744 0.0
1.4804349226461635 -0.0109127025434555 0.0
1.4840473773818783 -0.0069177616410795 0.0
1.0498759011655376 -1.0663799322259764 0.0
0.7040840106246700 -1.0847243741389136 0.0
1.3394259696627415 -0.1752846147443449 0.0
0.6872478126694939 -1.1456079261605967 0.0
0.0490754895089407 -0.4613287273159205 0.0
1.2008651521683849 -0.0734458606805147 0.0
0.3737773439471148 -1.0105807083709053 0.0
1.6288151365228709 -0.0991359738938685 0.0
0.4107679817277532 -0.0052529032302425 0.0
1.5802757279033999 -0.0857651613113685 0.0
1.5499780869792328 -0.0993755433508950 0.0
0.0092652768496119 0.0023377711924855 0.0
0.0156561607439542 0.0037295279351090 0.0
0.5357610280825403 0.0414349726310882 0.0
0.3593112203457217 -0.0532053318708597 0.0
0.0062969836218852 -0.0051055712543937 0.0
0.0103506598155900 -0.0044290980653999 0.0
0.5548048500326050 -0.0345825669338412 0.0
0.6124285734185381 -0.8163209484831911 0.0
0.5589762331686527 -0.0341004084308357 0.0
0.5529176423879157 -0.0269490050350460 0.0
0.7090131371952217 -0.2897544367867521 0.0
0.7470022107649390 -0.2802213065529137 0.0
0.6082660624563987 -0.6980630751996830 0.0
0.3403219679394148 -0.3922883886653944 0.0
0.3819315638977389 -0.4145094720661662 0.0
0.0294547845440804 0.0038219774561065 0.0
0.0194663966917036 0.0019799043876005 0.0
1.3424692758234207 -0.5038406406540769 0.0
1.2870850556613611 -0.6390364419954528 0.0
0.8912378546496084 -0.5654096597804713 0.0
0.7959818645250459 -0.4712845068192588 0.0
