# vtk DataFile Version 3.0
LucasCarvalhoTCC Results
ASCII

DATASET POLYDATA
FIELD FieldData 1
TIME 1 1 double
0.9

POINTS 380 float
0.0 2.0 0.0
2.0 2.0 0.0
3.0 2.0 0.0
3.0 1.0 0.0
5.0 1.0 0.0
5.0 0.0 0.0
3.0 0.0 0.0
2.0 0.0 0.0
2.0 1.0 0.0
0.0 1.0 0.0
0.2643114543905713 2.0 0.0
0.5169795502969444 2.0 0.0
0.7585171880292413 2.0 0.0
0.9894145836600268 2.0 0.0
1.210140497826619 2.0 0.0
1.421143008568911 2.0 0.0
1.622850459538253 2.0 0.0
1.815672303789548 2.0 0.0
2.188552664328277 2.0 0.0
2.359329284173903 2.0 0.0
2.514005696104645 2.0 0.0
2.654099788331341 2.0 0.0
2.780986322989182 2.0 0.0
2.895910470953052 2.0 0.0
3.0 1.9 0.0
3.0 1.8 0.0
3.0 1.7 0.0
3.0 1.6 0.0
3.0 1.5 0.0
3.0 1.4 0.0
3.0 1.3 0.0
3.0 1.2 0.0
3.0 1.1 0.0
3.105031513416626 1.0 0.0
3.221094637894669 1.0 0.0
3.349348047908936 1.0 0.0
3.491072094154001 1.0 0.0
3.647681638607018 1.0 0.0
3.820740106959136 1.0 0.0
4.011975186625977 1.0 0.0
4.223295996958671 1.0 0.0
4.456812096249916 1.0 0.0
4.714854728122151 1.0 0.0
5.0 0.7500000000000003 0.0
5.0 0.5000000000000012 0.0
5.0 0.2500000000000011 0.0
4.735688545609428 0.0 0.0
4.483020449703056 0.0 0.0
4.241482811970759 0.0 0.0
4.010585416339973 0.0 0.0
3.789859502173381 0.0 0.0
3.578856991431089 0.0 0.0
3.377149540461747 0.0 0.0
3.184327696210452 0.0 0.0
2.811447335671723 0.0 0.0
2.640670715826097 0.0 0.0
2.485994303895355 0.0 0.0
2.345900211668659 0.0 0.0
2.219013677010818 0.0 0.0
2.104089529046948 0.0 0.0
2.0 0.1 0.0
2.0 0.2 0.0
2.0 0.3 0.0
2.0 0.4 0.0
2.0 0.5 0.0
2.0 0.6 0.0
2.0 0.7 0.0
2.0 0.8 0.0
2.0 0.9 0.0
1.894968486583374 1.0 0.0
1.77890536210533 1.0 0.0
1.650651952091063 1.0 0.0
1.508927905845999 1.0 0.0
1.352318361392982 1.0 0.0
1.179259893040864 1.0 0.0
0.9880248133740233 1.0 0.0
0.7767040030413299 1.0 0.0
0.5431879037500846 1.0 0.0
0.2851452718778493 1.0 0.0
0.0 1.25 0.0
0.0 1.499999999999999 0.0
0.0 1.749999999999999 0.0
2.426045913985508 1.348290599604586 0.0
2.562221387987337 0.6558377602558874 0.0
1.966703786708101 1.492474555319359 0.0
3.033486484223225 0.4973568340887861 0.0
2.371610747520728 0.97814425147097 0.0
2.648098402859118 1.648016516253387 0.0
2.351901597140882 0.3519834837466129 0.0
2.694321138879857 1.061432730999581 0.0
1.441644339445862 1.496646809257773 0.0
3.554831642064292 0.501744031268764 0.0
2.720742750697982 1.350625068836981 0.0
2.282037541072919 0.639419348257894 0.0
2.813390610951134 0.7911761792959446 0.0
2.310700631729327 1.679155452525512 0.0
2.688751528716965 0.3206838402855661 0.0
2.211165393176843 1.213708510063781 0.0
0.9449004170027906 1.496357611130017 0.0
4.05509958299721 0.5036423888699835 0.0
3.025501657200047 0.7528388163714679 0.0
1.714778657098197 1.300039655550584 0.0
1.958264922640818 1.245975101752485 0.0
2.206386339371814 0.8500000000000001 0.0
3.336706349465057 0.704398544338507 0.0
4.529565928894533 0.555233644424822 0.0
0.4704340711054673 1.444766355575178 0.0
2.186983355180128 1.461437746541105 0.0
2.553715879020142 0.8859594914241276 0.0
2.782212276375736 0.5474565156445963 0.0
2.500206140967324 1.148517546040804 0.0
2.803373162317882 1.783880361314082 0.0
2.196626837682118 0.2161196386859174 0.0
1.735623536927746 1.664129737658362 0.0
3.268802735993943 0.3358439745752063 0.0
2.799454045372581 1.51553500056848 0.0
2.18762015375897 0.4992029885790829 0.0
2.813478812948685 1.18678600527921 0.0
2.400994471757771 0.7612313552289275 0.0
2.405444563947088 0.5311203927463914 0.0
2.583195945356847 1.473216966241769 0.0
3.734210872783077 0.7260959952797862 0.0
1.256500988572085 1.265010492624376 0.0
2.938353069321001 0.2909212553641365 0.0
2.061245308362322 1.709221243241415 0.0
2.182240881432738 1.001025052084926 0.0
2.830214026212788 0.9796244234047695 0.0
2.49023894829247 1.787687811117195 0.0
2.50976105170753 0.2123121888828049 0.0
1.194806886820808 1.686899295332255 0.0
3.805193113179192 0.3131007046677451 0.0
2.655039231860651 1.208917360245127 0.0
1.493530449555064 1.231198576616718 0.0
2.345622594939228 1.152685186835846 0.0
2.41380980106708 1.521513100394759 0.0
2.58979513084283 0.4863225267637531 0.0
2.135472648094309 0.7246460081196311 0.0
2.912574128751924 0.660128736186259 0.0
2.866043013605144 1.353074765380587 0.0
0.6928324624395237 1.69170809873467 0.0
4.307167537560476 0.3082919012653306 0.0
2.071506740582853 1.128535871978767 0.0
0.6831902494895832 1.302725441792086 0.0
4.316809750510417 0.6972745582079137 0.0
2.85534466702333 1.667491236848871 0.0
2.141886244104996 0.336139391754002 0.0
1.447743165823209 1.773242752731258 0.0
3.554386585610856 0.224002072703283 0.0
2.96485662756902 0.8593908564801968 0.0
3.240425509636175 0.8099760775594669 0.0
2.088410584923666 1.339747073830609 0.0
3.277530767974837 0.4939020807639749 0.0
3.534313505233912 0.7935179117986669 0.0
2.546683861402325 1.011736398479819 0.0
2.664793655038503 0.758149595673951 0.0
2.7009922066801 0.9086021996324817 0.0
1.844652141496971 1.153158997353228 0.0
2.575910747861113 1.316876286520138 0.0
3.994328863599566 0.7454319923658932 0.0
1.005671136400434 1.254568007634107 0.0
1.722192091537185 1.482888323667831 0.0
2.644751416415203 1.850904811198953 0.0
2.355248583584797 0.1490951888010467 0.0
2.31560379269905 1.25706851182614 0.0
2.129697972466254 0.5864366202645266 0.0
2.417220568140766 0.6397160301847872 0.0
2.867945749403976 1.069821281672812 0.0
3.182303046124178 0.6739667261124369 0.0
4.702774994215813 0.2953677284017739 0.0
0.2972250057841874 1.704632271598226 0.0
2.90043748182062 0.4316738443013928 0.0
2.486081387366873 0.3514585853722887 0.0
2.513918612633127 1.648541414627711 0.0
2.086778258621772 1.563111332603502 0.0
4.025359850459486 0.2638518716814435 0.0
0.9746401495405139 1.736148128318556 0.0
3.116389458098145 0.2933651166122753 0.0
1.885410353788165 1.707062521230272 0.0
2.327134732627959 1.833634230002939 0.0
2.672865267372041 0.1663657699970617 0.0
1.675899428547673 1.15999616666306 0.0
1.858973331615206 1.373382723203102 0.0
2.860266039499884 1.862282581689995 0.0
2.139733960500116 0.1377174183100045 0.0
1.257473476073173 1.479081588926576 0.0
3.731624273377778 0.5208146070195914 0.0
2.115038607594509 0.9238947313642476 0.0
0.2734661728051435 1.270630989444945 0.0
4.726533827194856 0.7293690105550548 0.0
2.699965708650878 1.465007479364728 0.0
2.298365077320068 0.5341069340550768 0.0
2.510583000486659 0.7602856732279889 0.0
3.370667741214912 0.8392397884376295 0.0
3.067541604254986 0.8806352314757129 0.0
2.90073732483139 1.443475210354718 0.0
2.264071206758208 0.9501943312745662 0.0
2.278663096491763 0.7489636980394857 0.0
1.952511813454414 1.110576661474517 0.0
2.744352083917141 0.687787375233183 0.0
1.566252941493004 1.383661493752942 0.0
2.437660520624072 0.8703573012735125 0.0
2.904826075218911 1.261819176983655 0.0
2.305967018083784 1.391390767447104 0.0
2.105729326736999 0.8145314366030645 0.0
2.428967188976762 1.236966721617647 0.0
3.060475488407204 0.1442825789852263 0.0
1.934979199332455 1.852811714602595 0.0
2.095475260770118 0.4348597444661615 0.0
2.914777085426361 1.759093454264707 0.0
2.084827330449114 0.2414252069642749 0.0
2.207128288422204 1.315477221019454 0.0
2.658751426439581 0.5773232450959589 0.0
2.612380011409894 1.114144853433198 0.0
2.897371573983894 1.569769587751228 0.0
0.5001010519014215 1.226918930408543 0.0
4.499898948098578 0.7730810695914568 0.0
2.753086810589338 1.690362801865437 0.0
2.246793053318422 0.3097947118702842 0.0
3.391580469276819 0.5673489147038103 0.0
3.035026488699165 0.6179797538177514 0.0
2.449819864663089 1.055109427275025 0.0
2.27653308928065 1.054384468582349 0.0
2.794675693196835 1.418106589018447 0.0
2.778866980525137 1.083577784614141 0.0
2.244522876020972 0.1116738824400324 0.0
2.755477123979027 1.888326117559968 0.0
2.323887028942199 0.8604475039748537 0.0
2.204900210979926 1.747483509451062 0.0
2.794853185869193 0.2526222191943996 0.0
2.320767315286541 1.530441598510029 0.0
1.550828143561484 1.606851581022188 0.0
2.796593663741882 1.288013595743853 0.0
3.436143660897262 0.3940652474171653 0.0
2.682379445750112 0.4493639922429763 0.0
3.242313228541417 0.154845696987206 0.0
1.75965289115187 1.844031320058407 0.0
1.3642341383496 1.159631408929946 0.0
1.980047380836635 1.36362624976796 0.0
2.070303834520089 1.451946835577872 0.0
2.55866460451515 1.229901920133861 0.0
4.26844523535139 0.499131154814159 0.0
0.7315547646486098 1.500868845185841 0.0
2.716116351489881 1.570657861970705 0.0
2.283245236086922 0.4299499540566049 0.0
4.50573905238033 0.204273435313806 0.0
0.4942609476196695 1.795726564686194 0.0
3.605070352001925 0.644396355247622 0.0
3.171946621948212 0.9019117497969773 0.0
3.40309695214227 0.1789624633199048 0.0
1.59690304785773 1.821037536680094 0.0
4.776800700354217 0.5074282293075529 0.0
0.2231992996457826 1.492571770692447 0.0
1.293020597407515 1.839015256431498 0.0
3.706979402592485 0.1609847435685022 0.0
1.398281395597716 1.351857389185529 0.0
2.880181082677912 0.1378504756446906 0.0
2.119200639021148 1.861833157788504 0.0
2.408646939494887 0.2452196658480275 0.0
2.591353060505113 1.754780334151973 0.0
1.146570081566377 1.160946826906423 0.0
3.853429918433624 0.8390531730935771 0.0
2.920846657438631 1.149071660619678 0.0
2.101132283911678 1.226382957654413 0.0
2.903672483971366 0.7774662795474147 0.0
2.516386521935266 0.571665255016536 0.0
2.475412447847437 1.444413760085193 0.0
2.903041575637174 0.5510905120278109 0.0
3.666476299189054 0.8553176740217776 0.0
1.558137053653031 1.119389262041809 0.0
3.867595456948903 0.1475874639835382 0.0
1.132404543051097 1.852412536016462 0.0
2.635017655944937 0.9730281566682446 0.0
2.436667490139274 1.901171080200935 0.0
2.563332509860726 0.09882891979906516 0.0
2.091598337090247 1.040423151014485 0.0
0.8316881289508771 1.172977685150089 0.0
4.168311871049123 0.827022314849911 0.0
3.648565743761548 0.3681286963687066 0.0
1.355037313653319 1.636865536133179 0.0
2.58412781071005 1.576586299624529 0.0
2.41587218928995 0.4234137003754711 0.0
2.083716468691946 0.6634832154935376 0.0
1.843942294678346 1.256771801786488 0.0
[...]
POINT_DATA 380

VECTORS Velocity float
0.0000000000000000 0.0000000000000000 0.0
0.0000000000000000 0.0000000000000000 0.0
0.0000000000000000 0.0000000000000000 0.0
0.0000000000000000 0.0000000000000000 0.0
0.0000000000000000 0.0000000000000000 0.0
0.9183007316126872 -0.1314102574902532 0.0
0.0000000000000000 0.0000000000000000 0.0
0.0000000000000000 0.0000000000000000 0.0
0.0000000000000000 0.0000000000000000 0.0
0.0000000000000000 0.0000000000000000 0.0
0.0000000000000000 0.0000000000000000 0.0
0.0000000000000000 0.0000000000000000 0.0
0.0000000000000000 0.0000000000000000 0.0
0.0000000000000000 0.0000000000000000 0.0
0.0000000000000000 0.0000000000000000 0.0
0.0000000000000000 0.0000000000000000 0.0
0.0000000000000000 0.0000000000000000 0.0
0.0000000000000000 0.0000000000000000 0.0
0.0000000000000000 0.0000000000000000 0.0
0.0000000000000000 0.0000000000000000 0.0
0.0000000000000000 0.0000000000000000 0.0
0.0000000000000000 0.0000000000000000 0.0
0.0000000000000000 0.0000000000000000 0.0
0.0000000000000000 0.0000000000000000 0.0
0.0000000000000000 0.0000000000000000 0.0
0.0000000000000000 0.0000000000000000 0.0
0.0000000000000000 0.0000000000000000 0.0
0.0000000000000000 0.0000000000000000 0.0
0.0000000000000000 0.0000000000000000 0.0
0.0000000000000000 0.0000000000000000 0.0
0.0000000000000000 0.0000000000000000 0.0
0.0000000000000000 0.0000000000000000 0.0
0.0000000000000000 0.0000000000000000 0.0
0.0000000000000000 0.0000000000000000 0.0
0.0000000000000000 0.0000000000000000 0.0
0.0000000000000000 0.0000000000000000 0.0
0.0000000000000000 0.0000000000000000 0.0
0.0000000000000000 0.0000000000000000 0.0
0.0000000000000000 0.0000000000000000 0.0
0.0000000000000000 0.0000000000000000 0.0
0.0000000000000000 0.0000000000000000 0.0
0.0000000000000000 0.0000000000000000 0.0
0.0000000000000000 0.0000000000000000 0.0
1.1567091333824997 0.3524833248801645 0.0
0.7980826404744100 0.0463667257496922 0.0
1.1356921383402296 -0.3015361180818263 0.0
0.0000000000000000 0.0000000000000000 0.0
0.0000000000000000 0.0000000000000000 0.0
0.0000000000000000 0.0000000000000000 0.0
0.0000000000000000 0.0000000000000000 0.0
0.0000000000000000 0.0000000000000000 0.0
0.0000000000000000 0.0000000000000000 0.0
0.0000000000000000 0.0000000000000000 0.0
0.0000000000000000 0.0000000000000000 0.0
0.0000000000000000 0.0000000000000000 0.0
0.0000000000000000 0.0000000000000000 0.0
0.0000000000000000 0.0000000000000000 0.0
0.0000000000000000 0.0000000000000000 0.0
0.0000000000000000 0.0000000000000000 0.0
0.0000000000000000 0.0000000000000000 0.0
0.0000000000000000 0.0000000000000000 0.0
0.0000000000000000 0.0000000000000000 0.0
0.0000000000000000 0.0000000000000000 0.0
0.0000000000000000 0.0000000000000000 0.0
0.0000000000000000 0.0000000000000000 0.0
0.0000000000000000 0.0000000000000000 0.0
0.0000000000000000 0.0000000000000000 0.0
0.0000000000000000 0.0000000000000000 0.0
0.0000000000000000 0.0000000000000000 0.0
0.0000000000000000 0.0000000000000000 0.0
0.0000000000000000 0.0000000000000000 0.0
0.0000000000000000 0.0000000000000000 0.0
0.0000000000000000 0.0000000000000000 0.0
0.0000000000000000 0.0000000000000000 0.0
0.0000000000000000 0.0000000000000000 0.0
0.0000000000000000 0.0000000000000000 0.0
0.0000000000000000 0.0000000000000000 0.0
0.0000000000000000 0.0000000000000000 0.0
0.0000000000000000 0.0000000000000000 0.0
1.0000000000000000 0.0000000000000000 0.0
1.0000000000000000 0.0000000000000000 0.0
1.0000000000000000 0.0000000000000000 0.0
0.7539750219245543 -0.6228143391537021 0.0
0.6848600483755002 -0.6378680674929144 0.0
1.3255835177913213 -0.2481360108177438 0.0
1.2665715232849495 -0.2610271496164085 0.0
0.5344177070171259 -0.9934521748154276 0.0
0.4203867318144186 -0.1802547868785347 0.0
0.3897748553796589 -0.1902180912035858 0.0
0.5049676415711528 -1.0425777679383359 0.0
1.5120840074964996 -0.0841606013108672 0.0
1.5291199639003010 -0.0976422245383942 0.0
0.2877681479260860 -0.6114144738587045 0.0
0.2753802391624297 -0.6042878839685862 0.0
1.0460693194848911 -0.9544500228132519 0.0
0.7733018686525175 -0.1682431617799786 0.0
0.7602431148900047 -0.1690803131581080 0.0
1.0503234088336346 -0.8569147857639400 0.0
1.5816335222163813 -0.0097599282099289 0.0
1.5785468132080247 -0.0000593664956971 0.0
1.4875002897688989 -0.4180194595809360 0.0
1.4542927617603418 -0.1377939319245313 0.0
1.4695291099978103 -0.3818508404600024 0.0
0.2014482579447970 -1.0066121929299856 0.0
1.4688507845654306 -0.1112275969486654 0.0
1.5736394639574343 0.0130437930733863 0.0
1.5256608943781169 0.0336924615509110 0.0
1.0729801478324639 -0.4236031623138840 0.0
0.6036582285385513 -0.8839103577838598 0.0
0.9953235850998541 -0.3912393137378690 0.0
0.5921696189784869 -0.8817332745130585 0.0
0.2297739272520600 -0.0386296495611114 0.0
0.2007326157980579 -0.0490149475765319 0.0
1.1906886131754955 -0.0654135777643756 0.0
1.1691094890204121 -0.0658094391877281 0.0
0.1871975447478164 -0.3480783125437696 0.0
0.1473599048227601 -0.3270424597883198 0.0
0.1052992468961952 -0.8676757420820057 0.0
0.4540394454824876 -0.7769527913538834 0.0
0.4661038275074059 -0.4577298987989202 0.0
0.5072812330516667 -0.4317743282216748 0.0
1.3716626703264259 -0.0285132300992517 0.0
1.2940624360151882 -0.0911905082046680 0.0
0.8995638523694286 -0.1217402920015935 0.0
0.9261226897957408 -0.1121912852984968 0.0
0.5733502657653761 -1.2175037119331258 0.0
0.5967495765714229 -1.2959744385432295 0.0
0.4443414638551383 -0.0192537245467994 0.0
0.4291393357602709 -0.0250785776832458 0.0
1.2865789242689840 0.0260100105582124 0.0
1.2887214547571098 0.0266466784107794 0.0
0.4105729009012111 -0.8206751963467565 0.0
1.2630775259844262 -0.0249503375513748 0.0
0.7681500393071130 -0.8997679206931795 0.0
0.7130777275876455 -0.3724951368271577 0.0
0.7277629091930190 -0.4047693438808716 0.0
-0.0717028002859903 -0.5461571784810829 0.0
1.3207773848319098 -0.5612108822127614 0.0
0.0508311916478221 -0.4912032434984797 0.0
1.3409992634650381 0.0111737177868528 0.0
1.3414896904256675 0.0208494190023300 0.0
1.2681259455284026 -0.9325390033994126 0.0
1.3766401151619228 -0.0386111504371532 0.0
1.3747695525048704 -0.0517256496386883 0.0
0.1919485314592807 -0.1095861794344334 0.0
0.1657208225105023 -0.1193520730555533 0.0
0.8251234262404562 -0.0066556819668498 0.0
0.8264869117960271 -0.0141375107130408 0.0
1.3914686082179974 -0.7118611478083964 0.0
1.2949568355695760 -0.1363857072406525 0.0
1.2656877447471944 -0.5438146332197824 0.0
1.4315601004154506 -0.0826479612517283 0.0
1.2195718744543160 -0.0747134490338935 0.0
0.5753062889358140 -0.9272661901351744 0.0
0.7952741627343581 -0.7552445560986221 0.0
0.7113288290205306 -1.0421497900192305 0.0
1.2575895511313342 -0.1020010322193049 0.0
0.5189899977328734 -0.6610158006795516 0.0
1.0628242723398402 -0.0476811863202856 0.0
1.0659302519581770 -0.0458607902505417 0.0
1.4668757656094107 -0.0935669144192739 0.0
0.1964623079361892 -0.0404614910470510 0.0
0.1833642406655793 -0.0418294391883838 0.0
0.8802875400057916 -0.7473037596503651 0.0
0.0557844698417008 -0.2887719177920989 0.0
0.4658318745955417 -0.5901429788671400 0.0
0.1546877502979412 -1.0382005369142477 0.0
1.4744803295226827 -0.2212910960963900 0.0
1.2168911122631330 -0.2144995914458728 0.0
1.2042973378519348 -0.1976342421098483 0.0
1.0911150158758098 -0.2655764108552626 0.0
0.5401703237241201 -0.1950281780116974 0.0
0.5638878626369848 -0.1816780841496999 0.0
1.1452471398502295 -0.2694114086724658 0.0
1.0527537753784320 -0.0160709457474867 0.0
1.0493104869415832 -0.0176795294886008 0.0
1.0246887162304008 -0.0922873752454491 0.0
1.0464472641024585 -0.0904823782967217 0.0
0.3614297916791639 -0.0489812659278232 0.0
0.3563307342341752 -0.0493985204838668 0.0
0.9089424866329304 -0.0531594931192895 0.0
1.4316838721041263 -0.1998422599444917 0.0
0.1658735321917340 0.0205132902416796 0.0
0.1394687609117800 0.0115288746936637 0.0
1.5020367281321172 -0.0906288993029301 0.0
1.5244929753036716 -0.1101220208520292 0.0
0.0590760196780301 -0.7323827637153780 0.0
1.0992046222901799 0.2247230351590543 0.0
1.1024322611844497 0.2238922568789876 0.0
0.3208537473888708 -0.4427014946806340 0.0
0.2947131647685051 -0.4298548649892461 0.0
0.5903378509667381 -0.7784761096461855 0.0
0.9636704332153805 -0.0716875916010723 0.0
1.0036730090127095 -0.2309355031093157 0.0
0.0626695716925534 -0.2411714760799621 0.0
0.4421432480624548 -1.1257848033466051 0.0
0.2338154235381118 -0.8134965790240646 0.0
0.9686319855486136 -0.1521815835050059 0.0
0.9505520650973249 -0.6716190199199902 0.0
1.4920624680711367 -0.0831588607237448 0.0
0.5176953960392423 -0.8858286625516097 0.0
-0.0417776550804265 -0.4338579410907561 0.0
0.9097876377447307 -0.5417518041239900 0.0
-0.0117367657883230 -0.4606225204076366 0.0
0.6875921861003857 -0.7936927589655658 0.0
0.4930891586548058 -0.0181358298700312 0.0
0.4939355764403215 -0.0141007290449700 0.0
0.1106683376970937 -0.1418099755079779 0.0
0.1662004462134428 -0.0113953386316872 0.0
0.1387732960510796 -0.0182982011901815 0.0
1.0973080195129541 -0.6884040371359010 0.0
0.8226995444671507 -0.5184558621712807 0.0
0.5232608035262583 -0.9131001709094663 0.0
0.1003641254784926 -0.1438849008717273 0.0
0.8746363453164981 0.1597220884922395 0.0
0.8519096801375809 0.1291177027301973 0.0
0.3099207574993176 -0.1464591628281084 0.0
0.2819179308683181 -0.1569203381751197 0.0
1.5262804764357696 -0.1084352706058704 0.0
1.4055753971486920 -0.3463075981130577 0.0
0.5929473613562192 -0.9379546759697327 0.0
0.6739226428042123 -1.0936922420444972 0.0
0.1796793981645088 -0.4519185249066654 0.0
0.3655587321973327 -1.1249468847578150 0.0
0.1169028122114104 -0.0294043593699689 0.0
0.1311755053431986 -0.0275207224526599 0.0
0.4190322595224366 -0.9667644371959451 0.0
0.7537215094940496 -0.1266953700329501 0.0
0.7390222141685661 -0.1269844468697932 0.0
0.8858250413266477 -0.3477678467149475 0.0
1.3376392472353775 -0.0333813638519144 0.0
0.1475324696324782 -0.6512743559904136 0.0
1.3073331666282184 -0.0385415434650031 0.0
0.8702508558221392 -0.3410491344250245 0.0
0.5739748583642013 -0.0271827572221956 0.0
0.5726764585117744 -0.0292176238047743 0.0
0.9055617446055667 -0.0331621843083600 0.0
1.3764951694595455 -0.3714813659031471 0.0
1.2544110329466489 -0.3787546545440201 0.0
0.5179398991779824 -0.7864798467253237 0.0
1.5742303325407090 -0.0421646664012758 0.0
1.5667602038532458 -0.0384772272474345 0.0
0.3223645601780944 -0.2723161314318853 0.0
0.2911721253754134 -0.2860236178190357 0.0
0.7827964640861972 -0.1351924394089432 0.0
0.8045620967031999 -0.1542826856294501 0.0
1.4969638332007702 -0.0852721511936938 0.0
0.6481953525536190 -0.0895218316155671 0.0
0.6944078649181739 -0.0719461923847078 0.0
0.6980597947295937 -0.0781696872034018 0.0
1.2576340831898161 0.0480269334825326 0.0
1.2090895941546667 0.0412383713245349 0.0
0.6685418624385894 0.0397368847782091 0.0
0.6747287578129666 0.0400285222020521 0.0
1.4252101267664117 -0.0716681833001017 0.0
0.3935952604646384 -0.0571973816044083 0.0
0.3972157984033307 -0.0562440316605441 0.0
0.3885287898925864 -0.1159279072200198 0.0
0.4088581849261891 -0.1110029618414270 0.0
0.7378725072796685 0.0572325513378819 0.0
0.7408192015115478 0.0986299341632599 0.0
-0.0928314326689746 -0.5018713588670562 0.0
1.2878309130965544 -0.7429763629153368 0.0
1.2996609961080046 -0.8017599075567221 0.0
0.6095730293471401 -0.5224188625961702 0.0
0.6641098674347781 -0.4565769007420494 0.0
1.1973516369570061 -0.3972455912929020 0.0
0.6302407528845855 0.0163131827709796 0.0
0.6726415562473361 -0.0397954463338751 0.0
0.5625143825093304 -0.1037347430575134 0.0
0.5623995735099574 -0.1021781744680597 0.0
0.5973654568896012 -0.9933908256870061 0.0
0.1561799065247260 -0.0270230224509653 0.0
0.1509251905843313 -0.0280145026834872 0.0
0.6527158024881341 -1.0026279826642963 0.0
0.6843001787179507 -0.0952732148341123 0.0
0.6827479094013891 -0.1018936076969826 0.0
1.3175013347409359 -0.1060451600581311 0.0
1.3185972473586869 -0.0996591890419673 0.0
0.5165237075502608 -0.2777316985450283 0.0
0.4738526927837463 -0.2881080490356950 0.0
-0.0648808962242507 -0.2608272266633796 0.0
1.3749733341354173 -0.2164474702867417 0.0
0.6690484499665608 -1.0997626193604519 0.0
0.1546100891999171 -0.4751770383541529 0.0
0.4189876584524316 -0.5720024739159156 0.0
1.0288999128279319 -1.0950288288115047 0.0
0.8407682739972551 -1.1314487416679313 0.0
1.4716140476060340 -0.0615089982369629 0.0
1.4725514017828933 -0.0884741147231225 0.0
0.5894796483236251 -1.1348541249112756 0.0
0.9921131798775745 -0.2297028067124059 0.0
0.9646973573467639 -0.2052306574836924 0.0
0.6407796740353472 -0.1416764173627912 0.0
0.6305562361992230 -0.1508793231562990 0.0
1.4964300620834283 -0.1087636601394131 0.0
0.8615524850285230 -0.9314186701582340 0.0
0.3617081861344307 -0.9521506536293250 0.0
1.1850420327718221 -0.1674172170979896 0.0
1.5479912405983263 -0.0734099063935680 0.0
1.5565382107063919 -0.0776430122100191 0.0
1.2155065936757239 -0.1524422830255620 0.0
0.1765126533707173 -0.0032552492631502 0.0
0.1853370696535527 -0.0005712291061253 0.0
0.4876557463017919 0.0664429278607009 0.0
1.2980546992872461 -0.1266928052533257 0.0
1.3442513536114344 -0.0246701088672795 0.0
0.4044341494486983 -0.7098592125345489 0.0
0.2358075047837970 -0.2226403526513032 0.0
0.2039497801132697 -0.2236536289208961 0.0
0.3218096470125008 -0.0587584274791556 0.0
0.2963733643593762 -0.0669433540194246 0.0
0.3808415404952784 -0.5567675119070989 0.0
-0.0930778743559587 -0.1971578679109244 0.0
0.7663376717191700 -0.6832881124179492 0.0
0.5347514924528144 0.0350196189043336 0.0
0.5196620459320093 0.0196671982389621 0.0
1.4707455449146176 -0.0398077069707642 0.0
1.4688577628375861 -0.0495053231448028 0.0
0.8558608261565628 -1.0225077968515530 0.0
1.4056901517024267 -0.2026799442963330 0.0
0.4761241645914783 -0.0612871050399653 0.0
0.1402436941448591 -0.0515297840215862 0.0
0.1120839127505122 -0.0534819793189550 0.0
0.3584847059612523 -0.6984974124016425 0.0
0.0519738513129702 -0.1714644103544135 0.0
0.6226142857112061 -0.6967950333569294 0.0
1.3405440045288302 -0.1229505123952419 0.0
0.6285998255721501 -0.3354063335746174 0.0
0.5983768729185809 -0.3624926387203713 0.0
0.5616159774597448 -0.9231897068020755 0.0
0.6824742897257640 0.0796711876175068 0.0
0.6813488175019934 0.0822077688937691 0.0
0.6867051649668861 -0.9103769057865700 0.0
0.0794046829885817 -0.7633875052692942 0.0
0.1001236617615684 -0.5740059351098757 0.0
-0.0195211269244461 -0.1645828562817712 0.0
0.8451266040734493 0.0630361797105973 0.0
0.8108317762134268 0.0915450931214033 0.0
0.8341031754005623 -0.0520380185885175 0.0
0.8051960642077733 -0.0707339591494744 0.0
0.2849569544487603 -0.8044176842681057 0.0
0.8194973753240660 -0.1965871999301634 0.0
0.6746019959589831 -0.7844781683845062 0.0
1.2002893178178706 -0.7268997478637668 0.0
0.6276461335205639 0.0760635548052557 0.0
1.4699619012783829 -0.0106774337694629 0.0
1.4744427523814994 -0.0066594393592856 0.0
1.0793851890809480 -1.1639879649006404 0.0
0.6429551258038425 -0.9151039911410639 0.0
1.4078657856566736 -0.2238035360473775 0.0
0.6334366912176805 -0.9982766059526478 0.0
-0.0972677249086686 -0.6338236825711046 0.0
1.2764327265110254 -0.1360904726959312 0.0
0.3493481623440389 -1.1510385389050661 0.0
1.4937141488341275 -0.1316635221348930 0.0
0.4442293249696723 -0.0099698398261424 0.0
1.5603163790938521 -0.0720492051930029 0.0
1.5345245855137468 -0.0899905933095527 0.0
0.0739984215800771 0.0177111601841482 0.0
0.0928758499040834 0.0221298817798588 0.0
0.5633455623607810 0.0415979691124802 0.0
0.4339826889816998 -0.0763020749156875 0.0
0.0453141165746009 0.0025751068313010 0.0
0.0567955653700402 0.0055816747528996 0.0
0.5677188224697292 -0.0407718088432895 0.0
0.5707936243035274 -0.6869159786478277 0.0
0.5697501260860904 -0.0318752204805144 0.0
0.5651608646637932 -0.0245993801594563 0.0
0.7212197131680901 -0.2587039586649380 0.0
0.7517904046962253 -0.2409966148913287 0.0
0.5571563860565329 -0.5805785639640646 0.0
0.3791582779107092 -0.3510762371263649 0.0
0.4151060045160115 -0.3556567108744108 0.0
0.1485172402140486 0.0281402400368037 0.0
0.1200718008818156 0.0223056552571055 0.0
1.4974738400386109 -0.5717898309758789 0.0
1.1192284016644258 -0.5754982057903278 0.0
0.7865953676790525 -0.4849791727512283 0.0
0.9453517323238193 -0.5624310295062274 0.0
