# vtk DataFile Version 3.0
LucasCarvalhoTCC Results
ASCII

DATASET POLYDATA
FIELD FieldData 1
TIME 1 1 double
1.5

POINTS 380 float
0.0 2.0 0.0
2.0 2.0 0.0
3.0 2.0 0.0
3.0 1.0 0.0
5.0 1.0 0.0
5.0 0.0 0.0
3.0 0.0 0.0
2.0 0.0 0.0
2.0 1.0 0.0
0.0 1.0 0.0
0.2643114543905713 2.0 0.0
0.5169795502969444 2.0 0.0
0.7585171880292413 2.0 0.0
0.9894145836600268 2.0 0.0
1.210140497826619 2.0 0.0
1.421143008568911 2.0 0.0
1.622850459538253 2.0 0.0
1.815672303789548 2.0 0.0
2.188552664328277 2.0 0.0
2.359329284173903 2.0 0.0
2.514005696104645 2.0 0.0
2.654099788331341 2.0 0.0
2.780986322989182 2.0 0.0
2.895910470953052 2.0 0.0
3.0 1.9 0.0
3.0 1.8 0.0
3.0 1.7 0.0
3.0 1.6 0.0
3.0 1.5 0.0
3.0 1.4 0.0
3.0 1.3 0.0
3.0 1.2 0.0
3.0 1.1 0.0
3.105031513416626 1.0 0.0
3.221094637894669 1.0 0.0
3.349348047908936 1.0 0.0
3.491072094154001 1.0 0.0
3.647681638607018 1.0 0.0
3.820740106959136 1.0 0.0
4.011975186625977 1.0 0.0
4.223295996958671 1.0 0.0
4.456812096249916 1.0 0.0
4.714854728122151 1.0 0.0
5.0 0.7500000000000003 0.0
5.0 0.5000000000000012 0.0
5.0 0.2500000000000011 0.0
4.735688545609428 0.0 0.0
4.483020449703056 0.0 0.0
4.241482811970759 0.0 0.0
4.010585416339973 0.0 0.0
3.789859502173381 0.0 0.0
3.578856991431089 0.0 0.0
3.377149540461747 0.0 0.0
3.184327696210452 0.0 0.0
2.811447335671723 0.0 0.0
2.640670715826097 0.0 0.0
2.485994303895355 0.0 0.0
2.345900211668659 0.0 0.0
2.219013677010818 0.0 0.0
2.104089529046948 0.0 0.0
2.0 0.1 0.0
2.0 0.2 0.0
2.0 0.3 0.0
2.0 0.4 0.0
2.0 0.5 0.0
2.0 0.6 0.0
2.0 0.7 0.0
2.0 0.8 0.0
2.0 0.9 0.0
1.894968486583374 1.0 0.0
1.77890536210533 1.0 0.0
1.650651952091063 1.0 0.0
1.508927905845999 1.0 0.0
1.352318361392982 1.0 0.0
1.179259893040864 1.0 0.0
0.9880248133740233 1.0 0.0
0.7767040030413299 1.0 0.0
0.5431879037500846 1.0 0.0
0.2851452718778493 1.0 0.0
0.0 1.25 0.0
0.0 1.499999999999999 0.0
0.0 1.749999999999999 0.0
2.426045913985508 1.348290599604586 0.0
2.562221387987337 0.6558377602558874 0.0
1.966703786708101 1.492474555319359 0.0
3.033486484223225 0.4973568340887861 0.0
2.371610747520728 0.97814425147097 0.0
2.648098402859118 1.648016516253387 0.0
2.351901597140882 0.3519834837466129 0.0
2.694321138879857 1.061432730999581 0.0
1.441644339445862 1.496646809257773 0.0
3.554831642064292 0.501744031268764 0.0
2.720742750697982 1.350625068836981 0.0
2.282037541072919 0.639419348257894 0.0
2.813390610951134 0.7911761792959446 0.0
2.310700631729327 1.679155452525512 0.0
2.688751528716965 0.3206838402855661 0.0
2.211165393176843 1.213708510063781 0.0
0.9449004170027906 1.496357611130017 0.0
4.05509958299721 0.5036423888699835 0.0
3.025501657200047 0.7528388163714679 0.0
1.714778657098197 1.300039655550584 0.0
1.958264922640818 1.245975101752485 0.0
2.206386339371814 0.8500000000000001 0.0
3.336706349465057 0.704398544338507 0.0
4.529565928894533 0.555233644424822 0.0
0.4704340711054673 1.444766355575178 0.0
2.186983355180128 1.461437746541105 0.0
2.553715879020142 0.8859594914241276 0.0
2.782212276375736 0.5474565156445963 0.0
2.500206140967324 1.148517546040804 0.0
2.803373162317882 1.783880361314082 0.0
2.196626837682118 0.2161196386859174 0.0
1.735623536927746 1.664129737658362 0.0
3.268802735993943 0.3358439745752063 0.0
2.799454045372581 1.51553500056848 0.0
2.18762015375897 0.4992029885790829 0.0
2.813478812948685 1.18678600527921 0.0
2.400994471757771 0.7612313552289275 0.0
2.405444563947088 0.5311203927463914 0.0
2.583195945356847 1.473216966241769 0.0
3.734210872783077 0.7260959952797862 0.0
1.256500988572085 1.265010492624376 0.0
2.938353069321001 0.2909212553641365 0.0
2.061245308362322 1.709221243241415 0.0
2.182240881432738 1.001025052084926 0.0
2.830214026212788 0.9796244234047695 0.0
2.49023894829247 1.787687811117195 0.0
2.50976105170753 0.2123121888828049 0.0
1.194806886820808 1.686899295332255 0.0
3.805193113179192 0.3131007046677451 0.0
2.655039231860651 1.208917360245127 0.0
1.493530449555064 1.231198576616718 0.0
2.345622594939228 1.152685186835846 0.0
2.41380980106708 1.521513100394759 0.0
2.58979513084283 0.4863225267637531 0.0
2.135472648094309 0.7246460081196311 0.0
2.912574128751924 0.660128736186259 0.0
2.866043013605144 1.353074765380587 0.0
0.6928324624395237 1.69170809873467 0.0
4.307167537560476 0.3082919012653306 0.0
2.071506740582853 1.128535871978767 0.0
0.6831902494895832 1.302725441792086 0.0
4.316809750510417 0.6972745582079137 0.0
2.85534466702333 1.667491236848871 0.0
2.141886244104996 0.336139391754002 0.0
1.447743165823209 1.773242752731258 0.0
3.554386585610856 0.224002072703283 0.0
2.96485662756902 0.8593908564801968 0.0
3.240425509636175 0.8099760775594669 0.0
2.088410584923666 1.339747073830609 0.0
3.277530767974837 0.4939020807639749 0.0
3.534313505233912 0.7935179117986669 0.0
2.546683861402325 1.011736398479819 0.0
2.664793655038503 0.758149595673951 0.0
2.7009922066801 0.9086021996324817 0.0
1.844652141496971 1.153158997353228 0.0
2.575910747861113 1.316876286520138 0.0
3.994328863599566 0.7454319923658932 0.0
1.005671136400434 1.254568007634107 0.0
1.722192091537185 1.482888323667831 0.0
2.644751416415203 1.850904811198953 0.0
2.355248583584797 0.1490951888010467 0.0
2.31560379269905 1.25706851182614 0.0
2.129697972466254 0.5864366202645266 0.0
2.417220568140766 0.6397160301847872 0.0
2.867945749403976 1.069821281672812 0.0
3.182303046124178 0.6739667261124369 0.0
4.702774994215813 0.2953677284017739 0.0
0.2972250057841874 1.704632271598226 0.0
2.90043748182062 0.4316738443013928 0.0
2.486081387366873 0.3514585853722887 0.0
2.513918612633127 1.648541414627711 0.0
2.086778258621772 1.563111332603502 0.0
4.025359850459486 0.2638518716814435 0.0
0.9746401495405139 1.736148128318556 0.0
3.116389458098145 0.2933651166122753 0.0
1.885410353788165 1.707062521230272 0.0
2.327134732627959 1.833634230002939 0.0
2.672865267372041 0.1663657699970617 0.0
1.675899428547673 1.15999616666306 0.0
1.858973331615206 1.373382723203102 0.0
2.860266039499884 1.862282581689995 0.0
2.139733960500116 0.1377174183100045 0.0
1.257473476073173 1.479081588926576 0.0
3.731624273377778 0.5208146070195914 0.0
2.115038607594509 0.9238947313642476 0.0
0.2734661728051435 1.270630989444945 0.0
4.726533827194856 0.7293690105550548 0.0
2.699965708650878 1.465007479364728 0.0
2.298365077320068 0.5341069340550768 0.0
2.510583000486659 0.7602856732279889 0.0
3.370667741214912 0.8392397884376295 0.0
3.067541604254986 0.8806352314757129 0.0
2.90073732483139 1.443475210354718 0.0
2.264071206758208 0.9501943312745662 0.0
2.278663096491763 0.7489636980394857 0.0
1.952511813454414 1.110576661474517 0.0
2.744352083917141 0.687787375233183 0.0
1.566252941493004 1.383661493752942 0.0
2.437660520624072 0.8703573012735125 0.0
2.904826075218911 1.261819176983655 0.0
2.305967018083784 1.391390767447104 0.0
2.105729326736999 0.8145314366030645 0.0
2.428967188976762 1.236966721617647 0.0
3.060475488407204 0.1442825789852263 0.0
1.934979199332455 1.852811714602595 0.0
2.095475260770118 0.4348597444661615 0.0
2.914777085426361 1.759093454264707 0.0
2.084827330449114 0.2414252069642749 0.0
2.207128288422204 1.315477221019454 0.0
2.658751426439581 0.5773232450959589 0.0
2.612380011409894 1.114144853433198 0.0
2.897371573983894 1.569769587751228 0.0
0.5001010519014215 1.226918930408543 0.0
4.499898948098578 0.7730810695914568 0.0
2.753086810589338 1.690362801865437 0.0
2.246793053318422 0.3097947118702842 0.0
3.391580469276819 0.5673489147038103 0.0
3.035026488699165 0.6179797538177514 0.0
2.449819864663089 1.055109427275025 0.0
2.27653308928065 1.054384468582349 0.0
2.794675693196835 1.418106589018447 0.0
2.778866980525137 1.083577784614141 0.0
2.244522876020972 0.1116738824400324 0.0
2.755477123979027 1.888326117559968 0.0
2.323887028942199 0.8604475039748537 0.0
2.204900210979926 1.747483509451062 0.0
2.794853185869193 0.2526222191943996 0.0
2.320767315286541 1.530441598510029 0.0
1.550828143561484 1.606851581022188 0.0
2.796593663741882 1.288013595743853 0.0
3.436143660897262 0.3940652474171653 0.0
2.682379445750112 0.4493639922429763 0.0
3.242313228541417 0.154845696987206 0.0
1.75965289115187 1.844031320058407 0.0
1.3642341383496 1.159631408929946 0.0
1.980047380836635 1.36362624976796 0.0
2.070303834520089 1.451946835577872 0.0
2.55866460451515 1.229901920133861 0.0
4.26844523535139 0.499131154814159 0.0
0.7315547646486098 1.500868845185841 0.0
2.716116351489881 1.570657861970705 0.0
2.283245236086922 0.4299499540566049 0.0
4.50573905238033 0.204273435313806 0.0
0.4942609476196695 1.795726564686194 0.0
3.605070352001925 0.644396355247622 0.0
3.171946621948212 0.9019117497969773 0.0
3.40309695214227 0.1789624633199048 0.0
1.59690304785773 1.821037536680094 0.0
4.776800700354217 0.5074282293075529 0.0
0.2231992996457826 1.492571770692447 0.0
1.293020597407515 1.839015256431498 0.0
3.706979402592485 0.1609847435685022 0.0
1.398281395597716 1.351857389185529 0.0
2.880181082677912 0.1378504756446906 0.0
2.119200639021148 1.861833157788504 0.0
2.408646939494887 0.2452196658480275 0.0
2.591353060505113 1.754780334151973 0.0
1.146570081566377 1.160946826906423 0.0
3.853429918433624 0.8390531730935771 0.0
2.920846657438631 1.149071660619678 0.0
2.101132283911678 1.226382957654413 0.0
2.903672483971366 0.7774662795474147 0.0
2.516386521935266 0.571665255016536 0.0
2.475412447847437 1.444413760085193 0.0
2.903041575637174 0.5510905120278109 0.0
3.666476299189054 0.8553176740217776 0.0
1.558137053653031 1.119389262041809 0.0
3.867595456948903 0.1475874639835382 0.0
1.132404543051097 1.852412536016462 0.0
2.635017655944937 0.9730281566682446 0.0
2.436667490139274 1.901171080200935 0.0
2.563332509860726 0.09882891979906516 0.0
2.091598337090247 1.040423151014485 0.0
0.8316881289508771 1.172977685150089 0.0
4.168311871049123 0.827022314849911 0.0
3.648565743761548 0.3681286963687066 0.0
1.355037313653319 1.636865536133179 0.0
2.58412781071005 1.576586299624529 0.0
2.41587218928995 0.4234137003754711 0.0
2.083716468691946 0.6634832154935376 0.0
1.843942294678346 1.256771801786488 0.0
[...]
POINT_DATA 380

VECTORS Velocity float
0.0000000000000000 0.0000000000000000 0.0
0.0000000000000000 0.0000000000000000 0.0
0.0000000000000000 0.0000000000000000 0.0
0.0000000000000000 0.0000000000000000 0.0
0.0000000000000000 0.0000000000000000 0.0
0.9186407402435782 -0.1327500542199585 0.0
0.0000000000000000 0.0000000000000000 0.0
0.0000000000000000 0.0000000000000000 0.0
0.0000000000000000 0.0000000000000000 0.0
0.0000000000000000 0.0000000000000000 0.0
0.0000000000000000 0.0000000000000000 0.0
0.0000000000000000 0.0000000000000000 0.0
0.0000000000000000 0.0000000000000000 0.0
0.0000000000000000 0.0000000000000000 0.0
0.0000000000000000 0.0000000000000000 0.0
0.0000000000000000 0.0000000000000000 0.0
0.0000000000000000 0.0000000000000000 0.0
0.0000000000000000 0.0000000000000000 0.0
0.0000000000000000 0.0000000000000000 0.0
0.0000000000000000 0.0000000000000000 0.0
0.0000000000000000 0.0000000000000000 0.0
0.0000000000000000 0.0000000000000000 0.0
0.0000000000000000 0.0000000000000000 0.0
0.0000000000000000 0.0000000000000000 0.0
0.0000000000000000 0.0000000000000000 0.0
0.0000000000000000 0.0000000000000000 0.0
0.0000000000000000 0.0000000000000000 0.0
0.0000000000000000 0.0000000000000000 0.0
0.0000000000000000 0.0000000000000000 0.0
0.0000000000000000 0.0000000000000000 0.0
0.0000000000000000 0.0000000000000000 0.0
0.0000000000000000 0.0000000000000000 0.0
0.0000000000000000 0.0000000000000000 0.0
0.0000000000000000 0.0000000000000000 0.0
0.0000000000000000 0.0000000000000000 0.0
0.0000000000000000 0.0000000000000000 0.0
0.0000000000000000 0.0000000000000000 0.0
0.0000000000000000 0.0000000000000000 0.0
0.0000000000000000 0.0000000000000000 0.0
0.0000000000000000 0.0000000000000000 0.0
0.0000000000000000 0.0000000000000000 0.0
0.0000000000000000 0.0000000000000000 0.0
0.0000000000000000 0.0000000000000000 0.0
1.1558178015835563 0.3611321154634826 0.0
0.7959549080308522 0.0583093279889368 0.0
1.1387602895253537 -0.2990417132727524 0.0
0.0000000000000000 0.0000000000000000 0.0
0.0000000000000000 0.0000000000000000 0.0
0.0000000000000000 0.0000000000000000 0.0
0.0000000000000000 0.0000000000000000 0.0
0.0000000000000000 0.0000000000000000 0.0
0.0000000000000000 0.0000000000000000 0.0
0.0000000000000000 0.0000000000000000 0.0
0.0000000000000000 0.0000000000000000 0.0
0.0000000000000000 0.0000000000000000 0.0
0.0000000000000000 0.0000000000000000 0.0
0.0000000000000000 0.0000000000000000 0.0
0.0000000000000000 0.0000000000000000 0.0
0.0000000000000000 0.0000000000000000 0.0
0.0000000000000000 0.0000000000000000 0.0
0.0000000000000000 0.0000000000000000 0.0
0.0000000000000000 0.0000000000000000 0.0
0.0000000000000000 0.0000000000000000 0.0
0.0000000000000000 0.0000000000000000 0.0
0.0000000000000000 0.0000000000000000 0.0
0.0000000000000000 0.0000000000000000 0.0
0.0000000000000000 0.0000000000000000 0.0
0.0000000000000000 0.0000000000000000 0.0
0.0000000000000000 0.0000000000000000 0.0
0.0000000000000000 0.0000000000000000 0.0
0.0000000000000000 0.0000000000000000 0.0
0.0000000000000000 0.0000000000000000 0.0
0.0000000000000000 0.0000000000000000 0.0
0.0000000000000000 0.0000000000000000 0.0
0.0000000000000000 0.0000000000000000 0.0
0.0000000000000000 0.0000000000000000 0.0
0.0000000000000000 0.0000000000000000 0.0
0.0000000000000000 0.0000000000000000 0.0
0.0000000000000000 0.0000000000000000 0.0
1.0000000000000000 0.0000000000000000 0.0
1.0000000000000000 0.0000000000000000 0.0
1.0000000000000000 0.0000000000000000 0.0
0.8128043833525982 -0.6893772801431485 0.0
0.7277054693591620 -0.7000725285112612 0.0
1.4284391913913694 -0.2549713544859092 0.0
1.3673831745149418 -0.2607103870576460 0.0
0.5590729533825258 -1.0881838983352539 0.0
0.3690869771743789 -0.1929818214020881 0.0
0.3360890868536266 -0.1984216383154109 0.0
0.5363999232768075 -1.1329669206826549 0.0
1.5592245778285152 -0.0832215380543029 0.0
1.5888570248749372 -0.1086055851585455 0.0
0.2818666670696702 -0.6755992437251948 0.0
0.2640093764225110 -0.6458623808005770 0.0
1.0958267258453063 -0.9959657268609515 0.0
0.7394473299193723 -0.1746465175849977 0.0
0.7207785996976487 -0.1702905071999417 0.0
1.1031332983100552 -0.8978614087137499 0.0
1.5980861796204744 -0.0141456634766288 0.0
1.5953953532030742 -0.0039035151702721 0.0
1.4930237811925171 -0.3975247412605026 0.0
1.4880615865531790 -0.1023511093387815 0.0
1.4610375134952716 -0.3605668346373868 0.0
0.2285144683237631 -0.9634084709135438 0.0
1.4960369551643085 -0.0900250822466452 0.0
1.5832738052953426 0.0104385387449263 0.0
1.5330127487579290 0.0351653568111844 0.0
1.1691222073322447 -0.4554608477024713 0.0
0.6340263917515331 -0.9791270913063048 0.0
1.0774392450781700 -0.4101680599484763 0.0
0.6263873980337564 -0.9826545719883043 0.0
0.1471735915892058 -0.0584392608523972 0.0
0.1256618970256524 -0.0630076363147815 0.0
1.1850078995714253 -0.0762464684398295 0.0
1.1409590499281705 -0.0768176975830742 0.0
0.1573770790834972 -0.3719935556527962 0.0
0.1208259690799372 -0.3328767976890727 0.0
0.1399128152858868 -0.8540889124532919 0.0
0.4657349653070706 -0.8654100075731027 0.0
0.4747124101037231 -0.5021711395676143 0.0
0.5226648341451950 -0.4799038605482644 0.0
1.3829097919098305 -0.0139975010003338 0.0
1.3011327542874200 -0.0831254138457331 0.0
0.8531510722630656 -0.1218548119797456 0.0
0.8923344271632400 -0.1168255897271432 0.0
0.5782644401848674 -1.1386621656453306 0.0
0.6168518675505626 -1.2329979187983648 0.0
0.3788025377235450 -0.0246250996172275 0.0
0.3644580170789159 -0.0297714200010451 0.0
1.2829480679206711 0.0170997380155167 0.0
1.2842551177113739 0.0161424108678106 0.0
0.4340477474455393 -0.9204700631857753 0.0
1.2576076934143654 -0.0127931098956248 0.0
0.8148073672153153 -0.9857710306594991 0.0
0.7474192654268504 -0.3995375458629722 0.0
0.7657407537233502 -0.4357745756255093 0.0
-0.0274167064302102 -0.4886507399611460 0.0
1.4127611544991223 -0.5710230761347769 0.0
0.0524755904379435 -0.4837382933595796 0.0
1.3435160178721384 0.0073994150275682 0.0
1.3433429372953185 0.0167944148012317 0.0
1.1936044729326911 -0.8601530245811275 0.0
1.3769524144705947 -0.0381543929128654 0.0
1.3751321121814621 -0.0545610223113087 0.0
0.1252638268139073 -0.1266039066511707 0.0
0.1074021087401799 -0.1262599655607677 0.0
0.8012546748245800 -0.0082387820939133 0.0
0.7947525887017801 -0.0195696335142568 0.0
1.3162580196593516 -0.6534290384939788 0.0
1.2599326612521911 -0.1210287012274335 0.0
1.3574868369410151 -0.5658309766544543 0.0
1.4975339386708320 -0.0853481250074385 0.0
1.2033487540522818 -0.0667975193968099 0.0
0.6060849308944228 -1.0307230785973671 0.0
0.8451676930720023 -0.8300268708903459 0.0
0.7531134625237059 -1.1331566392370016 0.0
1.1609123737250635 -0.0843633851197426 0.0
0.5446674277522791 -0.7437635018667730 0.0
1.0640887241663859 -0.0495050558681305 0.0
1.0660625641670591 -0.0493873116919578 0.0
1.5380692217380429 -0.0853316071651574 0.0
0.1475407171801776 -0.0408189197979957 0.0
0.1371763438439421 -0.0408855034587026 0.0
0.9456421979451921 -0.8189054903351806 0.0
0.0473158043289255 -0.2717607414976007 0.0
0.4766396013438813 -0.6541348152011683 0.0
0.2074466513689344 -0.9418672021469540 0.0
1.5251794967792653 -0.1972914695939429 0.0
1.2260437672099984 -0.2191260033752170 0.0
1.2093095427891798 -0.2005584607514454 0.0
1.1391430571563332 -0.2652760023129013 0.0
0.4978248000880091 -0.2049827578392248 0.0
0.5229182629707888 -0.1932572379002304 0.0
1.2044943057435733 -0.2793562710840663 0.0
1.0476113461716579 -0.0222115018918299 0.0
1.0453918883810727 -0.0231855990600128 0.0
0.9795540983290706 -0.1010320576136106 0.0
1.0187860100249881 -0.1027226041095506 0.0
0.3159961361290527 -0.0487162425891105 0.0
0.3112163957325356 -0.0478381523697123 0.0
0.8661572945253867 -0.0362704589657725 0.0
1.5216280643492470 -0.1803119808232538 0.0
0.0862416383927135 -0.0007860303410934 0.0
0.0690928224574217 -0.0057249151400400 0.0
1.5311214701197999 -0.0954364877810761 0.0
1.5603618454111643 -0.1186449589678788 0.0
0.1102790297587478 -0.6274333422614893 0.0
1.0966667092285207 0.2296404431463605 0.0
1.0964117043748698 0.2295261214305161 0.0
0.3084838097125523 -0.4925874209521006 0.0
0.2772516429580419 -0.4643010227341938 0.0
0.6177383458923216 -0.8651232062018889 0.0
0.9352656351272706 -0.0640189326568915 0.0
0.9334321410279008 -0.2066976481277490 0.0
0.0465662654193894 -0.2395077485763162 0.0
0.4628078641549966 -1.1499628823508279 0.0
0.2421930694743996 -0.8612702915114953 0.0
0.8728633438990547 -0.1420902560504186 0.0
1.0301436566492843 -0.7288794994389302 0.0
1.5411184030423095 -0.0704574810892183 0.0
0.5388186145146960 -0.9855857118521005 0.0
-0.0061482480507478 -0.4043062168634733 0.0
0.9946615453714229 -0.5919425562225205 0.0
0.0320421661578479 -0.3957508904273179 0.0
0.7344013961854181 -0.8849679512215054 0.0
0.4464749147127044 -0.0191645511245352 0.0
0.4537205053105443 -0.0154870757861712 0.0
0.0791884448833227 -0.1367125759338951 0.0
0.0917700514671758 -0.0255004434834719 0.0
0.0739295050188052 -0.0278731818677635 0.0
1.1833998275993924 -0.7361237310806623 0.0
0.8859770866325841 -0.5573696302927175 0.0
0.5537463694704819 -1.0175823261442534 0.0
0.0639903147545151 -0.1498283319662825 0.0
0.8675039741818872 0.1640137756592851 0.0
0.8419980419128493 0.1315344857839110 0.0
0.2427558335850383 -0.1686086294079291 0.0
0.2170762102444044 -0.1706772671138092 0.0
1.6034784703797764 -0.1154430878387106 0.0
1.5113814426431480 -0.3436489715423990 0.0
0.6241277071005461 -1.0426473711460265 0.0
0.6975465269707336 -1.1375168222657774 0.0
0.1609351874717209 -0.4803178619255022 0.0
0.3973620755410330 -1.1355410397916905 0.0
0.0731538162174501 -0.0298492714419323 0.0
0.0830834009866493 -0.0292482862264370 0.0
0.4353673449166477 -1.0362854245874826 0.0
0.6963759234190551 -0.1264598273279962 0.0
0.6762534764068335 -0.1208159882133364 0.0
0.9346081610004695 -0.3750762322898292 0.0
1.3517475963745622 -0.0347056782240659 0.0
0.1495529138072921 -0.6709864289428105 0.0
1.3088413291968737 -0.0503810643370326 0.0
0.9090805401148978 -0.3596915531899788 0.0
0.5333883189846796 -0.0294527259576413 0.0
0.5408302882976944 -0.0323887024726428 0.0
0.8933639110910150 -0.0254110309263890 0.0
1.4671992435043673 -0.3683381789410722 0.0
1.3657274132180131 -0.3972938648762002 0.0
0.5473021517344394 -0.8820315737668017 0.0
1.5974016183834414 -0.0496795326085717 0.0
1.5877403806923065 -0.0431056095418858 0.0
0.2869645158541322 -0.3030432192269226 0.0
0.2553042947735496 -0.3050578654955701 0.0
0.7784370013239882 -0.1418519105155073 0.0
0.8004950732553214 -0.1593785199991938 0.0
1.5407043229810562 -0.0764545055570709 0.0
0.5923987611901457 -0.0727064549741009 0.0
0.6570182887888183 -0.0743706597095009 0.0
0.6694577559118041 -0.0800415055444749 0.0
1.2608011383838416 0.0546855672643887 0.0
1.2107176207261721 0.0455940201909801 0.0
0.6470084200970371 0.0356966272539535 0.0
0.6501964182940109 0.0353320911692931 0.0
1.4486855665106855 -0.0617238975784181 0.0
0.3502430996838286 -0.0553867313679707 0.0
0.3580670655899139 -0.0564094807480920 0.0
0.3203233389658707 -0.1167739896320200 0.0
0.3390777314381994 -0.1143642187091317 0.0
0.7303122145518331 0.0593923106292216 0.0
0.7325027468635489 0.1047653876135048 0.0
-0.0175986684238067 -0.4471744980936281 0.0
1.3074655659193519 -0.7440082252173128 0.0
1.3258884997173448 -0.7906295783802815 0.0
0.6423889211140699 -0.5724266330432413 0.0
0.7087234754024589 -0.5022926760848216 0.0
1.3109797679752018 -0.4139063807626076 0.0
0.6085930137158340 0.0231550967813773 0.0
0.6428920174085557 -0.0275520319241002 0.0
0.5427641673946008 -0.1069117161142984 0.0
0.5446228654215607 -0.1049892521920500 0.0
0.6328582095338320 -1.0950420283575673 0.0
0.1251239419923581 -0.0254591183589379 0.0
0.1208129429622175 -0.0264606588923206 0.0
0.6198865881254549 -0.8723482297507905 0.0
0.6732148582018399 -0.0967349460269579 0.0
0.6719223620143234 -0.1043066174940297 0.0
1.3152225735324907 -0.1247893534380684 0.0
1.3181857764412725 -0.1102696903694959 0.0
0.5107050386389219 -0.2971327325502467 0.0
0.4615267109241471 -0.3049241158442766 0.0
-0.0356620023935364 -0.2279604596488510 0.0
1.3784044576718533 -0.1871242983051634 0.0
0.6410543981785141 -0.9547150198959951 0.0
0.1366933070581554 -0.4909821541865629 0.0
0.4275580866894719 -0.6436522666260830 0.0
1.0134556446497440 -1.0540857108575112 0.0
0.8716294997184291 -1.1651553648810147 0.0
1.4903037959346186 -0.0610580151287970 0.0
1.4874480376319781 -0.0914874125730522 0.0
0.6217612304702802 -1.1955992571941583 0.0
1.0156751343807364 -0.2426885591279369 0.0
0.9805395825645796 -0.2060585259705077 0.0
0.5797481393451110 -0.1484726878686678 0.0
0.5699418992694641 -0.1570148282219277 0.0
1.5373238063443559 -0.1092579659811362 0.0
0.9149879528168543 -1.0138271874466205 0.0
0.3876760184965449 -1.0298080790884758 0.0
1.2030608759515873 -0.1665549149359178 0.0
1.5650200476675373 -0.0848987277098240 0.0
1.5743220419761694 -0.0893302252853444 0.0
1.2504416151300750 -0.1582937832123185 0.0
0.1382216326161209 -0.0066695627317101 0.0
0.1454146357968976 -0.0045863081824109 0.0
0.4409750846759039 0.0642652147193769 0.0
1.3385250888532128 -0.1304684965238379 0.0
1.3315209034891047 0.0056958290348094 0.0
0.4169249921019225 -0.7992995365057307 0.0
0.1843672492552279 -0.2487231380355640 0.0
0.1563436817353930 -0.2352330632896820 0.0
0.2441595416122707 -0.0750003963392214 0.0
0.2228081167306087 -0.0790257673951076 0.0
0.3809739244211109 -0.6164811836416884 0.0
-0.0416106819263028 -0.1653170959771450 0.0
0.8193247461591500 -0.7508152086601919 0.0
0.5230297081288094 0.0365382189423056 0.0
0.5066852727030813 0.0196362637759726 0.0
1.4798589685168930 -0.0454136908858361 0.0
1.4796232976568284 -0.0564356765233307 0.0
0.9014554907816699 -1.0673621318902378 0.0
1.5176665929935753 -0.1866758452718712 0.0
0.4378966145565960 -0.0520684938350520 0.0
0.0781015818623217 -0.0521353856368837 0.0
0.0602463694260899 -0.0501811888126574 0.0
0.3596156121214176 -0.7720639848088834 0.0
0.0364857503224029 -0.1579215402131678 0.0
0.6611930960689349 -0.7795524690511474 0.0
1.4029349986117416 -0.1324564577655106 0.0
0.6464393561690125 -0.3637109045396820 0.0
0.6137863556212961 -0.3907975686519820 0.0
0.5898263284296955 -1.0255274971080981 0.0
0.6710782741184906 0.0790454605470731 0.0
0.6684951551076799 0.0817335372244049 0.0
0.7271857104555070 -1.0023266823840886 0.0
0.1009043745157298 -0.7220091037529424 0.0
0.0997950732998032 -0.5638028028561034 0.0
-0.0115108679957863 -0.1514585926421353 0.0
0.8425860701547930 0.0646356584527934 0.0
0.8061488619789451 0.0955289601091238 0.0
0.8328880115031941 -0.0510528525632664 0.0
0.8037946919197497 -0.0684352862713356 0.0
0.2984174688768195 -0.8722104750335695 0.0
0.7205064686744781 -0.1753032606161745 0.0
0.7117014884610212 -0.8633062722992795 0.0
1.2798882550306543 -0.7646633548068742 0.0
0.5717398485151809 0.0796459356683433 0.0
1.4795353693339388 -0.0097928012807666 0.0
1.4832938038017500 -0.0055204656285846 0.0
1.0621473223289517 -1.1090383777473329 0.0
0.6806029088000403 -1.0167422089949150 0.0
1.3597021078290601 -0.1932875667152574 0.0
0.6681879520697411 -1.0935954997886976 0.0
0.0073567128776004 -0.5166970604501228 0.0
1.2244621941524991 -0.0941591688785680 0.0
0.3684030302223891 -1.0684913490947343 0.0
1.5901956824495556 -0.1093552442473559 0.0
0.4156104283186673 -0.0063199951657512 0.0
1.5775018195085606 -0.0837569726483501 0.0
1.5482823823039560 -0.0986707288713398 0.0
0.0286207654035695 0.0071479024672227 0.0
0.0401622489252376 0.0098865265033200 0.0
0.5403232858068453 0.0404167707540667 0.0
0.3811203914793591 -0.0612564760650186 0.0
0.0176459985692281 -0.0027279101887261 0.0
0.0246024109108748 -0.0009369133916739 0.0
0.5550581508060506 -0.0355967478457648 0.0
0.5959488136441735 -0.7632455338770543 0.0
0.5596159832407080 -0.0338853445696829 0.0
0.5536313580056557 -0.0264791446406335 0.0
0.7192181958687671 -0.2769705768025075 0.0
0.7528471827173520 -0.2633729522992574 0.0
0.5861167935458238 -0.6487331712541603 0.0
0.3599606912247293 -0.3803941085003960 0.0
0.3992469499800528 -0.3941411408061714 0.0
0.0677666414721127 0.0122071509040052 0.0
0.0500798314401816 0.0085074208725883 0.0
1.3971371803294339 -0.5305700495567637 0.0
1.2254358780393722 -0.6191293736854980 0.0
0.8497995723373248 -0.5304044709637666 0.0
0.8445655409150978 -0.5030192845660254 0.0
