# vtk DataFile Version 3.0
LucasCarvalhoTCC Results
ASCII

DATASET POLYDATA
FIELD FieldData 1
TIME 1 1 double
2.5

POINTS 380 float
0.0 2.0 0.0
2.0 2.0 0.0
3.0 2.0 0.0
3.0 1.0 0.0
5.0 1.0 0.0
5.0 0.0 0.0
3.0 0.0 0.0
2.0 0.0 0.0
2.0 1.0 0.0
0.0 1.0 0.0
0.2643114543905713 2.0 0.0
0.5169795502969444 2.0 0.0
0.7585171880292413 2.0 0.0
0.9894145836600268 2.0 0.0
1.210140497826619 2.0 0.0
1.421143008568911 2.0 0.0
1.622850459538253 2.0 0.0
1.815672303789548 2.0 0.0
2.188552664328277 2.0 0.0
2.359329284173903 2.0 0.0
2.514005696104645 2.0 0.0
2.654099788331341 2.0 0.0
2.780986322989182 2.0 0.0
2.895910470953052 2.0 0.0
3.0 1.9 0.0
3.0 1.8 0.0
3.0 1.7 0.0
3.0 1.6 0.0
3.0 1.5 0.0
3.0 1.4 0.0
3.0 1.3 0.0
3.0 1.2 0.0
3.0 1.1 0.0
3.105031513416626 1.0 0.0
3.221094637894669 1.0 0.0
3.349348047908936 1.0 0.0
3.491072094154001 1.0 0.0
3.647681638607018 1.0 0.0
3.820740106959136 1.0 0.0
4.011975186625977 1.0 0.0
4.223295996958671 1.0 0.0
4.456812096249916 1.0 0.0
4.714854728122151 1.0 0.0
5.0 0.7500000000000003 0.0
5.0 0.5000000000000012 0.0
5.0 0.2500000000000011 0.0
4.735688545609428 0.0 0.0
4.483020449703056 0.0 0.0
4.241482811970759 0.0 0.0
4.010585416339973 0.0 0.0
3.789859502173381 0.0 0.0
3.578856991431089 0.0 0.0
3.377149540461747 0.0 0.0
3.184327696210452 0.0 0.0
2.811447335671723 0.0 0.0
2.640670715826097 0.0 0.0
2.485994303895355 0.0 0.0
2.345900211668659 0.0 0.0
2.219013677010818 0.0 0.0
2.104089529046948 0.0 0.0
2.0 0.1 0.0
2.0 0.2 0.0
2.0 0.3 0.0
2.0 0.4 0.0
2.0 0.5 0.0
2.0 0.6 0.0
2.0 0.7 0.0
2.0 0.8 0.0
2.0 0.9 0.0
1.894968486583374 1.0 0.0
1.77890536210533 1.0 0.0
1.650651952091063 1.0 0.0
1.508927905845999 1.0 0.0
1.352318361392982 1.0 0.0
1.179259893040864 1.0 0.0
0.9880248133740233 1.0 0.0
0.7767040030413299 1.0 0.0
0.5431879037500846 1.0 0.0
0.2851452718778493 1.0 0.0
0.0 1.25 0.0
0.0 1.499999999999999 0.0
0.0 1.749999999999999 0.0
2.426045913985508 1.348290599604586 0.0
2.562221387987337 0.6558377602558874 0.0
1.966703786708101 1.492474555319359 0.0
3.033486484223225 0.4973568340887861 0.0
2.371610747520728 0.97814425147097 0.0
2.648098402859118 1.648016516253387 0.0
2.351901597140882 0.3519834837466129 0.0
2.694321138879857 1.061432730999581 0.0
1.441644339445862 1.496646809257773 0.0
3.554831642064292 0.501744031268764 0.0
2.720742750697982 1.350625068836981 0.0
2.282037541072919 0.639419348257894 0.0
2.813390610951134 0.7911761792959446 0.0
2.310700631729327 1.679155452525512 0.0
2.688751528716965 0.3206838402855661 0.0
2.211165393176843 1.213708510063781 0.0
0.9449004170027906 1.496357611130017 0.0
4.05509958299721 0.5036423888699835 0.0
3.025501657200047 0.7528388163714679 0.0
1.714778657098197 1.300039655550584 0.0
1.958264922640818 1.245975101752485 0.0
2.206386339371814 0.8500000000000001 0.0
3.336706349465057 0.704398544338507 0.0
4.529565928894533 0.555233644424822 0.0
0.4704340711054673 1.444766355575178 0.0
2.186983355180128 1.461437746541105 0.0
2.553715879020142 0.8859594914241276 0.0
2.782212276375736 0.5474565156445963 0.0
2.500206140967324 1.148517546040804 0.0
2.803373162317882 1.783880361314082 0.0
2.196626837682118 0.2161196386859174 0.0
1.735623536927746 1.664129737658362 0.0
3.268802735993943 0.3358439745752063 0.0
2.799454045372581 1.51553500056848 0.0
2.18762015375897 0.4992029885790829 0.0
2.813478812948685 1.18678600527921 0.0
2.400994471757771 0.7612313552289275 0.0
2.405444563947088 0.5311203927463914 0.0
2.583195945356847 1.473216966241769 0.0
3.734210872783077 0.7260959952797862 0.0
1.256500988572085 1.265010492624376 0.0
2.938353069321001 0.2909212553641365 0.0
2.061245308362322 1.709221243241415 0.0
2.182240881432738 1.001025052084926 0.0
2.830214026212788 0.9796244234047695 0.0
2.49023894829247 1.787687811117195 0.0
2.50976105170753 0.2123121888828049 0.0
1.194806886820808 1.686899295332255 0.0
3.805193113179192 0.3131007046677451 0.0
2.655039231860651 1.208917360245127 0.0
1.493530449555064 1.231198576616718 0.0
2.345622594939228 1.152685186835846 0.0
2.41380980106708 1.521513100394759 0.0
2.58979513084283 0.4863225267637531 0.0
2.135472648094309 0.7246460081196311 0.0
2.912574128751924 0.660128736186259 0.0
2.866043013605144 1.353074765380587 0.0
0.6928324624395237 1.69170809873467 0.0
4.307167537560476 0.3082919012653306 0.0
2.071506740582853 1.128535871978767 0.0
0.6831902494895832 1.302725441792086 0.0
4.316809750510417 0.6972745582079137 0.0
2.85534466702333 1.667491236848871 0.0
2.141886244104996 0.336139391754002 0.0
1.447743165823209 1.773242752731258 0.0
3.554386585610856 0.224002072703283 0.0
2.96485662756902 0.8593908564801968 0.0
3.240425509636175 0.8099760775594669 0.0
2.088410584923666 1.339747073830609 0.0
3.277530767974837 0.4939020807639749 0.0
3.534313505233912 0.7935179117986669 0.0
2.546683861402325 1.011736398479819 0.0
2.664793655038503 0.758149595673951 0.0
2.7009922066801 0.9086021996324817 0.0
1.844652141496971 1.153158997353228 0.0
2.575910747861113 1.316876286520138 0.0
3.994328863599566 0.7454319923658932 0.0
1.005671136400434 1.254568007634107 0.0
1.722192091537185 1.482888323667831 0.0
2.644751416415203 1.850904811198953 0.0
2.355248583584797 0.1490951888010467 0.0
2.31560379269905 1.25706851182614 0.0
2.129697972466254 0.5864366202645266 0.0
2.417220568140766 0.6397160301847872 0.0
2.867945749403976 1.069821281672812 0.0
3.182303046124178 0.6739667261124369 0.0
4.702774994215813 0.2953677284017739 0.0
0.2972250057841874 1.704632271598226 0.0
2.90043748182062 0.4316738443013928 0.0
2.486081387366873 0.3514585853722887 0.0
2.513918612633127 1.648541414627711 0.0
2.086778258621772 1.563111332603502 0.0
4.025359850459486 0.2638518716814435 0.0
0.9746401495405139 1.736148128318556 0.0
3.116389458098145 0.2933651166122753 0.0
1.885410353788165 1.707062521230272 0.0
2.327134732627959 1.833634230002939 0.0
2.672865267372041 0.1663657699970617 0.0
1.675899428547673 1.15999616666306 0.0
1.858973331615206 1.373382723203102 0.0
2.860266039499884 1.862282581689995 0.0
2.139733960500116 0.1377174183100045 0.0
1.257473476073173 1.479081588926576 0.0
3.731624273377778 0.5208146070195914 0.0
2.115038607594509 0.9238947313642476 0.0
0.2734661728051435 1.270630989444945 0.0
4.726533827194856 0.7293690105550548 0.0
2.699965708650878 1.465007479364728 0.0
2.298365077320068 0.5341069340550768 0.0
2.510583000486659 0.7602856732279889 0.0
3.370667741214912 0.8392397884376295 0.0
3.067541604254986 0.8806352314757129 0.0
2.90073732483139 1.443475210354718 0.0
2.264071206758208 0.9501943312745662 0.0
2.278663096491763 0.7489636980394857 0.0
1.952511813454414 1.110576661474517 0.0
2.744352083917141 0.687787375233183 0.0
1.566252941493004 1.383661493752942 0.0
2.437660520624072 0.8703573012735125 0.0
2.904826075218911 1.261819176983655 0.0
2.305967018083784 1.391390767447104 0.0
2.105729326736999 0.8145314366030645 0.0
2.428967188976762 1.236966721617647 0.0
3.060475488407204 0.1442825789852263 0.0
1.934979199332455 1.852811714602595 0.0
2.095475260770118 0.4348597444661615 0.0
2.914777085426361 1.759093454264707 0.0
2.084827330449114 0.2414252069642749 0.0
2.207128288422204 1.315477221019454 0.0
2.658751426439581 0.5773232450959589 0.0
2.612380011409894 1.114144853433198 0.0
2.897371573983894 1.569769587751228 0.0
0.5001010519014215 1.226918930408543 0.0
4.499898948098578 0.7730810695914568 0.0
2.753086810589338 1.690362801865437 0.0
2.246793053318422 0.3097947118702842 0.0
3.391580469276819 0.5673489147038103 0.0
3.035026488699165 0.6179797538177514 0.0
2.449819864663089 1.055109427275025 0.0
2.27653308928065 1.054384468582349 0.0
2.794675693196835 1.418106589018447 0.0
2.778866980525137 1.083577784614141 0.0
2.244522876020972 0.1116738824400324 0.0
2.755477123979027 1.888326117559968 0.0
2.323887028942199 0.8604475039748537 0.0
2.204900210979926 1.747483509451062 0.0
2.794853185869193 0.2526222191943996 0.0
2.320767315286541 1.530441598510029 0.0
1.550828143561484 1.606851581022188 0.0
2.796593663741882 1.288013595743853 0.0
3.436143660897262 0.3940652474171653 0.0
2.682379445750112 0.4493639922429763 0.0
3.242313228541417 0.154845696987206 0.0
1.75965289115187 1.844031320058407 0.0
1.3642341383496 1.159631408929946 0.0
1.980047380836635 1.36362624976796 0.0
2.070303834520089 1.451946835577872 0.0
2.55866460451515 1.229901920133861 0.0
4.26844523535139 0.499131154814159 0.0
0.7315547646486098 1.500868845185841 0.0
2.716116351489881 1.570657861970705 0.0
2.283245236086922 0.4299499540566049 0.0
4.50573905238033 0.204273435313806 0.0
0.4942609476196695 1.795726564686194 0.0
3.605070352001925 0.644396355247622 0.0
3.171946621948212 0.9019117497969773 0.0
3.40309695214227 0.1789624633199048 0.0
1.59690304785773 1.821037536680094 0.0
4.776800700354217 0.5074282293075529 0.0
0.2231992996457826 1.492571770692447 0.0
1.293020597407515 1.839015256431498 0.0
3.706979402592485 0.1609847435685022 0.0
1.398281395597716 1.351857389185529 0.0
2.880181082677912 0.1378504756446906 0.0
2.119200639021148 1.861833157788504 0.0
2.408646939494887 0.2452196658480275 0.0
2.591353060505113 1.754780334151973 0.0
1.146570081566377 1.160946826906423 0.0
3.853429918433624 0.8390531730935771 0.0
2.920846657438631 1.149071660619678 0.0
2.101132283911678 1.226382957654413 0.0
2.903672483971366 0.7774662795474147 0.0
2.516386521935266 0.571665255016536 0.0
2.475412447847437 1.444413760085193 0.0
2.903041575637174 0.5510905120278109 0.0
3.666476299189054 0.8553176740217776 0.0
1.558137053653031 1.119389262041809 0.0
3.867595456948903 0.1475874639835382 0.0
1.132404543051097 1.852412536016462 0.0
2.635017655944937 0.9730281566682446 0.0
2.436667490139274 1.901171080200935 0.0
2.563332509860726 0.09882891979906516 0.0
2.091598337090247 1.040423151014485 0.0
0.8316881289508771 1.172977685150089 0.0
4.168311871049123 0.827022314849911 0.0
3.648565743761548 0.3681286963687066 0.0
1.355037313653319 1.636865536133179 0.0
2.58412781071005 1.576586299624529 0.0
2.41587218928995 0.4234137003754711 0.0
2.083716468691946 0.6634832154935376 0.0
1.843942294678346 1.256771801786488 0.0
[...]
POINT_DATA 380

VECTORS Velocity float
0.0000000000000000 0.0000000000000000 0.0
0.0000000000000000 0.0000000000000000 0.0
0.0000000000000000 0.0000000000000000 0.0
0.0000000000000000 0.0000000000000000 0.0
0.0000000000000000 0.0000000000000000 0.0
0.9186869410268230 -0.1330249709739569 0.0
0.0000000000000000 0.0000000000000000 0.0
0.0000000000000000 0.0000000000000000 0.0
0.0000000000000000 0.0000000000000000 0.0
0.0000000000000000 0.0000000000000000 0.0
0.0000000000000000 0.0000000000000000 0.0
0.0000000000000000 0.0000000000000000 0.0
0.0000000000000000 0.0000000000000000 0.0
0.0000000000000000 0.0000000000000000 0.0
0.0000000000000000 0.0000000000000000 0.0
0.0000000000000000 0.0000000000000000 0.0
0.0000000000000000 0.0000000000000000 0.0
0.0000000000000000 0.0000000000000000 0.0
0.0000000000000000 0.0000000000000000 0.0
0.0000000000000000 0.0000000000000000 0.0
0.0000000000000000 0.0000000000000000 0.0
0.0000000000000000 0.0000000000000000 0.0
0.0000000000000000 0.0000000000000000 0.0
0.0000000000000000 0.0000000000000000 0.0
0.0000000000000000 0.0000000000000000 0.0
0.0000000000000000 0.0000000000000000 0.0
0.0000000000000000 0.0000000000000000 0.0
0.0000000000000000 0.0000000000000000 0.0
0.0000000000000000 0.0000000000000000 0.0
0.0000000000000000 0.0000000000000000 0.0
0.0000000000000000 0.0000000000000000 0.0
0.0000000000000000 0.0000000000000000 0.0
0.0000000000000000 0.0000000000000000 0.0
0.0000000000000000 0.0000000000000000 0.0
0.0000000000000000 0.0000000000000000 0.0
0.0000000000000000 0.0000000000000000 0.0
0.0000000000000000 0.0000000000000000 0.0
0.0000000000000000 0.0000000000000000 0.0
0.0000000000000000 0.0000000000000000 0.0
0.0000000000000000 0.0000000000000000 0.0
0.0000000000000000 0.0000000000000000 0.0
0.0000000000000000 0.0000000000000000 0.0
0.0000000000000000 0.0000000000000000 0.0
1.1552851335430223 0.3637891678483086 0.0
0.7957396372178851 0.0626651582477453 0.0
1.1394910313882334 -0.2969362595384250 0.0
0.0000000000000000 0.0000000000000000 0.0
0.0000000000000000 0.0000000000000000 0.0
0.0000000000000000 0.0000000000000000 0.0
0.0000000000000000 0.0000000000000000 0.0
0.0000000000000000 0.0000000000000000 0.0
0.0000000000000000 0.0000000000000000 0.0
0.0000000000000000 0.0000000000000000 0.0
0.0000000000000000 0.0000000000000000 0.0
0.0000000000000000 0.0000000000000000 0.0
0.0000000000000000 0.0000000000000000 0.0
0.0000000000000000 0.0000000000000000 0.0
0.0000000000000000 0.0000000000000000 0.0
0.0000000000000000 0.0000000000000000 0.0
0.0000000000000000 0.0000000000000000 0.0
0.0000000000000000 0.0000000000000000 0.0
0.0000000000000000 0.0000000000000000 0.0
0.0000000000000000 0.0000000000000000 0.0
0.0000000000000000 0.0000000000000000 0.0
0.0000000000000000 0.0000000000000000 0.0
0.0000000000000000 0.0000000000000000 0.0
0.0000000000000000 0.0000000000000000 0.0
0.0000000000000000 0.0000000000000000 0.0
0.0000000000000000 0.0000000000000000 0.0
0.0000000000000000 0.0000000000000000 0.0
0.0000000000000000 0.0000000000000000 0.0
0.0000000000000000 0.0000000000000000 0.0
0.0000000000000000 0.0000000000000000 0.0
0.0000000000000000 0.0000000000000000 0.0
0.0000000000000000 0.0000000000000000 0.0
0.0000000000000000 0.0000000000000000 0.0
0.0000000000000000 0.0000000000000000 0.0
0.0000000000000000 0.0000000000000000 0.0
0.0000000000000000 0.0000000000000000 0.0
1.0000000000000000 0.0000000000000000 0.0
1.0000000000000000 0.0000000000000000 0.0
1.0000000000000000 0.0000000000000000 0.0
0.8752726888431555 -0.7607678875388449 0.0
0.7714728793164292 -0.7733218962545596 0.0
1.4914862848939856 -0.2595387465012354 0.0
1.4330711400540472 -0.2575418655580191 0.0
0.5749508387012141 -1.1557413437812691 0.0
0.3136665867924246 -0.2029538428394484 0.0
0.2780943494679223 -0.2012974822384802 0.0
0.5585182960433409 -1.1897912028129043 0.0
1.5726243532558939 -0.0796492002449487 0.0
1.6084246778272506 -0.1156979286705398 0.0
0.2783872636226499 -0.7009887863297293 0.0
0.2580489209067640 -0.6442738290341031 0.0
1.1329010998898805 -1.0036419088909203 0.0
0.7137520715732786 -0.1863020469039199 0.0
0.6851101453670465 -0.1760399082072499 0.0
1.1375042349229654 -0.9091429799199338 0.0
1.6000262879215532 -0.0178498127839753 0.0
1.5974699273101238 -0.0075099760021911 0.0
1.4935555926556168 -0.3721963850821814 0.0
1.5000716081322785 -0.0740376627013176 0.0
1.4478986417755371 -0.3341824272884348 0.0
0.2468821855370754 -0.8949370226589805 0.0
1.5107022118488507 -0.0734365838750113 0.0
1.5837909662219665 0.0096167827440566 0.0
1.5335341958370945 0.0357900861292278 0.0
1.2449666366772185 -0.4821824865965255 0.0
0.6633604544311501 -1.0896044831495979 0.0
1.1453490065210559 -0.4324034102252041 0.0
0.6572814932634711 -1.0974023994111837 0.0
0.0873076049686157 -0.0691829646231219 0.0
0.0732559899752543 -0.0659290677874555 0.0
1.1868673455636474 -0.0823569172837982 0.0
1.1224970862285575 -0.0879590984988228 0.0
0.1312261243863846 -0.3591295526893902 0.0
0.0976394230243365 -0.3050706207650366 0.0
0.1639677543018226 -0.8044702266761238 0.0
0.4779265183584679 -0.9330324648499305 0.0
0.4714184952884353 -0.5380321240971689 0.0
0.5300786169241900 -0.5255294625438131 0.0
1.3897056406148069 -0.0109495004600776 0.0
1.3055966585381582 -0.0808816922268476 0.0
0.8205082765335324 -0.1245985626605486 0.0
0.8761941720533520 -0.1249151895397514 0.0
0.5672719977381707 -1.0547965482119741 0.0
0.6222844576137749 -1.1591185880556352 0.0
0.3299135681849079 -0.0289942925334025 0.0
0.3132975993335038 -0.0338429110473239 0.0
1.2791733205645446 0.0128422577733107 0.0
1.2799877845611265 0.0101489808719006 0.0
0.4525716552176278 -1.0012040647148355 0.0
1.2570782029244643 -0.0029037861950417 0.0
0.8519648175337070 -1.0517309726572210 0.0
0.7716048023187096 -0.4360147400865626 0.0
0.7895997535174029 -0.4737647338492285 0.0
0.0095969717104891 -0.4192159251123093 0.0
1.4764578406439604 -0.5624100234402444 0.0
0.0605607447085054 -0.4408948181437555 0.0
1.3444474556339776 0.0066109918238124 0.0
1.3445447934508108 0.0150922374233707 0.0
1.1326627792268018 -0.7925253995036630 0.0
1.3763431445495999 -0.0383398965809740 0.0
1.3740566879853613 -0.0563395111976883 0.0
0.0747475369613281 -0.1272696809532411 0.0
0.0643811853866409 -0.1164389889354255 0.0
0.7931083631275831 -0.0093161624610007 0.0
0.7799399118387852 -0.0249910704907856 0.0
1.2638942741336732 -0.6029626392573536 0.0
1.2454421100104436 -0.1072611005755226 0.0
1.4208441437800112 -0.5675087586113780 0.0
1.5287230688352729 -0.0908407363918730 0.0
1.2044570779858481 -0.0637894378832723 0.0
0.6346205978540345 -1.1493216685319778 0.0
0.8975691543516785 -0.9047742692194836 0.0
0.7824012082384875 -1.1985465058296347 0.0
1.0992413357271764 -0.0678104958914342 0.0
0.5722300863209243 -0.8295070630303639 0.0
1.0655422849384983 -0.0508666778868019 0.0
1.0671249755117571 -0.0515593837927440 0.0
1.5706350715181427 -0.0752553805573557 0.0
0.1142646004961987 -0.0400907376911944 0.0
0.1045300312683901 -0.0387215226942167 0.0
1.0053311566447847 -0.8755062833602684 0.0
0.0446103509033145 -0.2335310521447864 0.0
0.4836142474293361 -0.7097325200055845 0.0
0.2359022632559436 -0.8499040524606767 0.0
1.5549385870818497 -0.1749698229115897 0.0
1.2286075543833324 -0.2191111658188205 0.0
1.2101364541127835 -0.2004508872754984 0.0
1.1718860401593194 -0.2662549305595449 0.0
0.4500388277822179 -0.2146945235001589 0.0
0.4791348124562940 -0.2057775034484707 0.0
1.2471135128148580 -0.2895553985538090 0.0
1.0455180329774771 -0.0254115610184977 0.0
1.0437150553381613 -0.0262779694977289 0.0
0.9495210052186794 -0.1089812451920679 0.0
1.0099483106252962 -0.1135958998958245 0.0
0.2859927982011528 -0.0494429720319341 0.0
0.2787987167426571 -0.0470566088174620 0.0
0.8439457410614611 -0.0239937042029165 0.0
1.5688969210824348 -0.1628930845727319 0.0
0.0344647544782646 -0.0146704780261176 0.0
0.0266065210250304 -0.0147710543907898 0.0
1.5368245522140431 -0.0973301263753952 0.0
1.5687808777966903 -0.1248656836853477 0.0
0.1328004095143764 -0.5462139512459232 0.0
1.0960908608542739 0.2305010972656246 0.0
1.0940900173217978 0.2308437101253134 0.0
0.2932601930293331 -0.5150167748622752 0.0
0.2548201939735946 -0.4664392958445021 0.0
0.6451920301378776 -0.9618336456033368 0.0
0.9288754575664090 -0.0567706636761728 0.0
0.8927272559177519 -0.1886659134350326 0.0
0.0406558351304981 -0.2149263803218130 0.0
0.4687893461468323 -1.1328937444660809 0.0
0.2553420639934724 -0.8611312242192072 0.0
0.8098152129627408 -0.1314533282182206 0.0
1.1045540784501371 -0.7750642928090118 0.0
1.5584285870322376 -0.0570024502267483 0.0
0.5564955710199526 -1.0789918198731294 0.0
0.0199956222247458 -0.3588627390403575 0.0
1.0731932986114576 -0.6400956300794703 0.0
0.0586831019111627 -0.3368901997777360 0.0
0.7805512679598205 -0.9799103254814352 0.0
0.4169781853733144 -0.0204660527419311 0.0
0.4343680287300680 -0.0178732913517162 0.0
0.0548296245817894 -0.1164202675885580 0.0
0.0406578770534007 -0.0327346035809774 0.0
0.0321319943423595 -0.0301967954437763 0.0
1.2523285321782334 -0.7609343984474858 0.0
0.9446391769283069 -0.6043182841292623 0.0
0.5770526884475886 -1.1185817736300387 0.0
0.0400694285083897 -0.1374258843946613 0.0
0.8661807425597430 0.1645314737792385 0.0
0.8392150249318272 0.1313018216298402 0.0
0.1817777314077622 -0.1769562593511866 0.0
0.1589977836295006 -0.1674613376035144 0.0
1.6362572115769973 -0.1198593657532248 0.0
1.5800136667971423 -0.3310838032822620 0.0
0.6505524090094011 -1.1530115032199275 0.0
0.7054070888324022 -1.1450479320689051 0.0
0.1488660430252742 -0.4648941987399036 0.0
0.4151520779236126 -1.1068797733100473 0.0
0.0452028345496070 -0.0283751294797862 0.0
0.0519025583028883 -0.0298413443192649 0.0
0.4467009415994436 -1.0622396540801364 0.0
0.6605179213305169 -0.1310468994195735 0.0
0.6298365211481208 -0.1191721412939507 0.0
0.9736530413782637 -0.4090334551801336 0.0
1.3569631773379633 -0.0333372294812495 0.0
0.1562042024276481 -0.6438311957845855 0.0
1.3057254620428256 -0.0612579735020214 0.0
0.9337322490987807 -0.3850901494116877 0.0
0.5094671793593912 -0.0321574332968286 0.0
0.5287523937157030 -0.0354156104530006 0.0
0.8933078736564457 -0.0207930291729717 0.0
1.5227465816309493 -0.3567299227826410 0.0
1.4417270411533591 -0.4074235573977645 0.0
0.5728590741505570 -0.9856632023194722 0.0
1.6000171075051874 -0.0530190096105987 0.0
1.5898749119134084 -0.0446325261568427 0.0
0.2448774447475668 -0.3136050561822827 0.0
0.2132909263402807 -0.2990828602381639 0.0
0.7794963031003868 -0.1432760998578791 0.0
0.8006653717488638 -0.1598712646054478 0.0
1.5565156736666068 -0.0751209362998888 0.0
0.5665863442044025 -0.0614860510004900 0.0
0.6375469281731583 -0.0779110235811830 0.0
0.6594330891025242 -0.0810848619727530 0.0
1.2611326430986025 0.0570660006487474 0.0
1.2108862116527979 0.0465235554130257 0.0
0.6400826384849752 0.0335709355509561 0.0
0.6411875229894101 0.0315837345176617 0.0
1.4557760857595694 -0.0547531534303210 0.0
0.3218787665545169 -0.0545750388214363 0.0
0.3364875688702826 -0.0578010285575918 0.0
0.2631607842437406 -0.1165351343008161 0.0
0.2829200943291123 -0.1169251779620398 0.0
0.7315449401151585 0.0591825934675257 0.0
0.7332961265772092 0.1060543831576684 0.0
0.0266748561795521 -0.3930902691709039 0.0
1.3135739515370277 -0.7257835903310231 0.0
1.3385696227783115 -0.7607862176471181 0.0
0.6670836370842327 -0.6258442089195542 0.0
0.7514986080136156 -0.5568090044899739 0.0
1.3955680761520661 -0.4216910437383048 0.0
0.6063697904351886 0.0251970712398501 0.0
0.6320517905258340 -0.0192211780109532 0.0
0.5375589566199962 -0.1086678104444026 0.0
0.5400998357613037 -0.1064616919400855 0.0
0.6626573772744117 -1.1916131095355385 0.0
0.1053003943358271 -0.0244952836825562 0.0
0.1005769012844333 -0.0254809081396622 0.0
0.5878743050805746 -0.7753150732930612 0.0
0.6719696731680169 -0.0975562046223537 0.0
0.6707406945078701 -0.1054368119571112 0.0
1.3103224595084189 -0.1365013463989108 0.0
1.3152306564691481 -0.1136773573207456 0.0
0.4863525577936642 -0.3157725482114950 0.0
0.4301579627345196 -0.3189462594390687 0.0
-0.0097854861289496 -0.1876480345612251 0.0
1.3739371569425640 -0.1585877870313131 0.0
0.6185389079876803 -0.8490971586507409 0.0
0.1239555306122476 -0.4638774733253921 0.0
0.4348858012458815 -0.7047422677130545 0.0
0.9907542538998028 -1.0001254040292167 0.0
0.8887528056043105 -1.1618074429719336 0.0
1.4958585464533045 -0.0636291812746675 0.0
1.4916060137764151 -0.0950184553027201 0.0
0.6404365133923368 -1.2203417927073275 0.0
1.0338348723709083 -0.2608983178364166 0.0
0.9886775751345835 -0.2132987255045701 0.0
0.5313129291085547 -0.1565859081106076 0.0
0.5172478738831296 -0.1634765704726281 0.0
1.5550463388817786 -0.1076184876653912 0.0
0.9615966664307264 -1.0700947439759585 0.0
0.4073604810784885 -1.0650822052254079 0.0
1.2103930041232698 -0.1677281417807665 0.0
1.5664942484383191 -0.0903124874846349 0.0
1.5759281221298458 -0.0949946007532209 0.0
1.2749896733522528 -0.1671350515424051 0.0
0.1117175694909264 -0.0094016397320361 0.0
0.1192018126800222 -0.0075789897736820 0.0
0.4231421913518522 0.0666371344686056 0.0
1.3583360040308863 -0.1359417024071981 0.0
1.3242863427417761 0.0274993599588164 0.0
0.4304593194466560 -0.8726850740180847 0.0
0.1373563415340851 -0.2473458997242458 0.0
0.1133591861903135 -0.2194390094295726 0.0
0.1832979644356461 -0.0847963255235345 0.0
0.1645825276616796 -0.0828509076792723 0.0
0.3776853411709769 -0.6514740158995243 0.0
-0.0054979176146624 -0.1360380600851795 0.0
0.8769907303183572 -0.8223957897966010 0.0
0.5213213433780919 0.0366248865018738 0.0
0.5044877916268895 0.0191158527452092 0.0
1.4809867858244796 -0.0475652845120824 0.0
1.4811696053003529 -0.0591932370222986 0.0
0.9315493359794282 -1.0814103909064456 0.0
1.5836314159883293 -0.1739711340573594 0.0
0.4289719144737246 -0.0486174592652836 0.0
0.0363102202084026 -0.0469987223018838 0.0
0.0268630822755791 -0.0419265114436378 0.0
0.3671131012319739 -0.8117262913061791 0.0
0.0266337595899356 -0.1303860594711480 0.0
0.7017658930014359 -0.8735052716805818 0.0
1.4392707960440561 -0.1393578510313181 0.0
0.6486801768070538 -0.3960908884007125 0.0
0.6108266843980610 -0.4189131386574138 0.0
0.6152470066939045 -1.1356287173313648 0.0
0.6699675738042284 0.0783841550296958 0.0
0.6670331525137606 0.0809826676114407 0.0
0.7652965810097995 -1.0983604733193368 0.0
0.1210202149193975 -0.6558319120790472 0.0
0.1062441469458754 -0.5169340926945363 0.0
0.0026174016646777 -0.1303006991870482 0.0
0.8421795788944336 0.0649019585895265 0.0
0.8049516710850739 0.0967220105753368 0.0
0.8329655788346653 -0.0507941356023092 0.0
0.8043913434356266 -0.0672431893681338 0.0
0.3106923280967874 -0.8932065955252396 0.0
0.6637565092619669 -0.1590146332959641 0.0
0.7503762550517553 -0.9554989610199275 0.0
1.3382052537918585 -0.7784604571761428 0.0
0.5419622502561370 0.0832392842625596 0.0
1.4804866134907770 -0.0113862898527431 0.0
1.4841169484108170 -0.0074676806032055 0.0
1.0449621659352331 -1.0449911955445632 0.0
0.7153258749178685 -1.1176919354593888 0.0
1.3330007854297801 -0.1675648058631876 0.0
0.6955486849475766 -1.1678033898236562 0.0
0.0632789228441229 -0.4385362505004884 0.0
1.1922400358602785 -0.0656287642261621 0.0
0.3746057873592222 -0.9826118947832464 0.0
1.6409144184320341 -0.0955770937688812 0.0
0.4105018878371307 -0.0051025991187964 0.0
1.5808088994053775 -0.0860511480856329 0.0
1.5502144735857684 -0.0993647072370001 0.0
0.0028420417491500 0.0007599285509254 0.0
0.0069278142550718 0.0015547015185162 0.0
0.5350160815759442 0.0419763607933600 0.0
0.3519026714859043 -0.0498005767256377 0.0
0.0024939649062363 -0.0057435954677637 0.0
0.0052561261974166 -0.0056069580177545 0.0
0.5553682321850868 -0.0344903826380685 0.0
0.6205975398638071 -0.8428118688570824 0.0
0.5590227340147996 -0.0341116996417727 0.0
0.5530184571974855 -0.0270315533691994 0.0
0.7026375876565264 -0.2972005602814209 0.0
0.7438042330295929 -0.2897874582276680 0.0
0.6190109743437596 -0.7240230123318259 0.0
0.3287745142208697 -0.3948903475005803 0.0
0.3717559981692560 -0.4222965317023934 0.0
0.0156703688619831 0.0008452191532720 0.0
0.0091214064740060 -0.0001567580642321 0.0
1.3204375747367800 -0.4907935818959367 0.0
1.3125037484022983 -0.6453627179311050 0.0
0.9099942372282702 -0.5841189663123624 0.0
0.7768136900441740 -0.4571218111030342 0.0
