# vtk DataFile Version 3.0
LucasCarvalhoTCC Results
ASCII

DATASET POLYDATA
FIELD FieldData 1
TIME 1 1 double
3.3000000000000003

POINTS 380 float
0.0 2.0 0.0
2.0 2.0 0.0
3.0 2.0 0.0
3.0 1.0 0.0
5.0 1.0 0.0
5.0 0.0 0.0
3.0 0.0 0.0
2.0 0.0 0.0
2.0 1.0 0.0
0.0 1.0 0.0
0.2643114543905713 2.0 0.0
0.5169795502969444 2.0 0.0
0.7585171880292413 2.0 0.0
0.9894145836600268 2.0 0.0
1.210140497826619 2.0 0.0
1.421143008568911 2.0 0.0
1.622850459538253 2.0 0.0
1.815672303789548 2.0 0.0
2.188552664328277 2.0 0.0
2.359329284173903 2.0 0.0
2.514005696104645 2.0 0.0
2.654099788331341 2.0 0.0
2.780986322989182 2.0 0.0
2.895910470953052 2.0 0.0
3.0 1.9 0.0
3.0 1.8 0.0
3.0 1.7 0.0
3.0 1.6 0.0
3.0 1.5 0.0
3.0 1.4 0.0
3.0 1.3 0.0
3.0 1.2 0.0
3.0 1.1 0.0
3.105031513416626 1.0 0.0
3.221094637894669 1.0 0.0
3.349348047908936 1.0 0.0
3.491072094154001 1.0 0.0
3.647681638607018 1.0 0.0
3.820740106959136 1.0 0.0
4.011975186625977 1.0 0.0
4.223295996958671 1.0 0.0
4.456812096249916 1.0 0.0
4.714854728122151 1.0 0.0
5.0 0.7500000000000003 0.0
5.0 0.5000000000000012 0.0
5.0 0.2500000000000011 0.0
4.735688545609428 0.0 0.0
4.483020449703056 0.0 0.0
4.241482811970759 0.0 0.0
4.010585416339973 0.0 0.0
3.789859502173381 0.0 0.0
3.578856991431089 0.0 0.0
3.377149540461747 0.0 0.0
3.184327696210452 0.0 0.0
2.811447335671723 0.0 0.0
2.640670715826097 0.0 0.0
2.485994303895355 0.0 0.0
2.345900211668659 0.0 0.0
2.219013677010818 0.0 0.0
2.104089529046948 0.0 0.0
2.0 0.1 0.0
2.0 0.2 0.0
2.0 0.3 0.0
2.0 0.4 0.0
2.0 0.5 0.0
2.0 0.6 0.0
2.0 0.7 0.0
2.0 0.8 0.0
2.0 0.9 0.0
1.894968486583374 1.0 0.0
1.77890536210533 1.0 0.0
1.650651952091063 1.0 0.0
1.508927905845999 1.0 0.0
1.352318361392982 1.0 0.0
1.179259893040864 1.0 0.0
0.9880248133740233 1.0 0.0
0.7767040030413299 1.0 0.0
0.5431879037500846 1.0 0.0
0.2851452718778493 1.0 0.0
0.0 1.25 0.0
0.0 1.499999999999999 0.0
0.0 1.749999999999999 0.0
2.426045913985508 1.348290599604586 0.0
2.562221387987337 0.6558377602558874 0.0
1.966703786708101 1.492474555319359 0.0
3.033486484223225 0.4973568340887861 0.0
2.371610747520728 0.97814425147097 0.0
2.648098402859118 1.648016516253387 0.0
2.351901597140882 0.3519834837466129 0.0
2.694321138879857 1.061432730999581 0.0
1.441644339445862 1.496646809257773 0.0
3.554831642064292 0.501744031268764 0.0
2.720742750697982 1.350625068836981 0.0
2.282037541072919 0.639419348257894 0.0
2.813390610951134 0.7911761792959446 0.0
2.310700631729327 1.679155452525512 0.0
2.688751528716965 0.3206838402855661 0.0
2.211165393176843 1.213708510063781 0.0
0.9449004170027906 1.496357611130017 0.0
4.05509958299721 0.5036423888699835 0.0
3.025501657200047 0.7528388163714679 0.0
1.714778657098197 1.300039655550584 0.0
1.958264922640818 1.245975101752485 0.0
2.206386339371814 0.8500000000000001 0.0
3.336706349465057 0.704398544338507 0.0
4.529565928894533 0.555233644424822 0.0
0.4704340711054673 1.444766355575178 0.0
2.186983355180128 1.461437746541105 0.0
2.553715879020142 0.8859594914241276 0.0
2.782212276375736 0.5474565156445963 0.0
2.500206140967324 1.148517546040804 0.0
2.803373162317882 1.783880361314082 0.0
2.196626837682118 0.2161196386859174 0.0
1.735623536927746 1.664129737658362 0.0
3.268802735993943 0.3358439745752063 0.0
2.799454045372581 1.51553500056848 0.0
2.18762015375897 0.4992029885790829 0.0
2.813478812948685 1.18678600527921 0.0
2.400994471757771 0.7612313552289275 0.0
2.405444563947088 0.5311203927463914 0.0
2.583195945356847 1.473216966241769 0.0
3.734210872783077 0.7260959952797862 0.0
1.256500988572085 1.265010492624376 0.0
2.938353069321001 0.2909212553641365 0.0
2.061245308362322 1.709221243241415 0.0
2.182240881432738 1.001025052084926 0.0
2.830214026212788 0.9796244234047695 0.0
2.49023894829247 1.787687811117195 0.0
2.50976105170753 0.2123121888828049 0.0
1.194806886820808 1.686899295332255 0.0
3.805193113179192 0.3131007046677451 0.0
2.655039231860651 1.208917360245127 0.0
1.493530449555064 1.231198576616718 0.0
2.345622594939228 1.152685186835846 0.0
2.41380980106708 1.521513100394759 0.0
2.58979513084283 0.4863225267637531 0.0
2.135472648094309 0.7246460081196311 0.0
2.912574128751924 0.660128736186259 0.0
2.866043013605144 1.353074765380587 0.0
0.6928324624395237 1.69170809873467 0.0
4.307167537560476 0.3082919012653306 0.0
2.071506740582853 1.128535871978767 0.0
0.6831902494895832 1.302725441792086 0.0
4.316809750510417 0.6972745582079137 0.0
2.85534466702333 1.667491236848871 0.0
2.141886244104996 0.336139391754002 0.0
1.447743165823209 1.773242752731258 0.0
3.554386585610856 0.224002072703283 0.0
2.96485662756902 0.8593908564801968 0.0
3.240425509636175 0.8099760775594669 0.0
2.088410584923666 1.339747073830609 0.0
3.277530767974837 0.4939020807639749 0.0
3.534313505233912 0.7935179117986669 0.0
2.546683861402325 1.011736398479819 0.0
2.664793655038503 0.758149595673951 0.0
2.7009922066801 0.9086021996324817 0.0
1.844652141496971 1.153158997353228 0.0
2.575910747861113 1.316876286520138 0.0
3.994328863599566 0.7454319923658932 0.0
1.005671136400434 1.254568007634107 0.0
1.722192091537185 1.482888323667831 0.0
2.644751416415203 1.850904811198953 0.0
2.355248583584797 0.1490951888010467 0.0
2.31560379269905 1.25706851182614 0.0
2.129697972466254 0.5864366202645266 0.0
2.417220568140766 0.6397160301847872 0.0
2.867945749403976 1.069821281672812 0.0
3.182303046124178 0.6739667261124369 0.0
4.702774994215813 0.2953677284017739 0.0
0.2972250057841874 1.704632271598226 0.0
2.90043748182062 0.4316738443013928 0.0
2.486081387366873 0.3514585853722887 0.0
2.513918612633127 1.648541414627711 0.0
2.086778258621772 1.563111332603502 0.0
4.025359850459486 0.2638518716814435 0.0
0.9746401495405139 1.736148128318556 0.0
3.116389458098145 0.2933651166122753 0.0
1.885410353788165 1.707062521230272 0.0
2.327134732627959 1.833634230002939 0.0
2.672865267372041 0.1663657699970617 0.0
1.675899428547673 1.15999616666306 0.0
1.858973331615206 1.373382723203102 0.0
2.860266039499884 1.862282581689995 0.0
2.139733960500116 0.1377174183100045 0.0
1.257473476073173 1.479081588926576 0.0
3.731624273377778 0.5208146070195914 0.0
2.115038607594509 0.9238947313642476 0.0
0.2734661728051435 1.270630989444945 0.0
4.726533827194856 0.7293690105550548 0.0
2.699965708650878 1.465007479364728 0.0
2.298365077320068 0.5341069340550768 0.0
2.510583000486659 0.7602856732279889 0.0
3.370667741214912 0.8392397884376295 0.0
3.067541604254986 0.8806352314757129 0.0
2.90073732483139 1.443475210354718 0.0
2.264071206758208 0.9501943312745662 0.0
2.278663096491763 0.7489636980394857 0.0
1.952511813454414 1.110576661474517 0.0
2.744352083917141 0.687787375233183 0.0
1.566252941493004 1.383661493752942 0.0
2.437660520624072 0.8703573012735125 0.0
2.904826075218911 1.261819176983655 0.0
2.305967018083784 1.391390767447104 0.0
2.105729326736999 0.8145314366030645 0.0
2.428967188976762 1.236966721617647 0.0
3.060475488407204 0.1442825789852263 0.0
1.934979199332455 1.852811714602595 0.0
2.095475260770118 0.4348597444661615 0.0
2.914777085426361 1.759093454264707 0.0
2.084827330449114 0.2414252069642749 0.0
2.207128288422204 1.315477221019454 0.0
2.658751426439581 0.5773232450959589 0.0
2.612380011409894 1.114144853433198 0.0
2.897371573983894 1.569769587751228 0.0
0.5001010519014215 1.226918930408543 0.0
4.499898948098578 0.7730810695914568 0.0
2.753086810589338 1.690362801865437 0.0
2.246793053318422 0.3097947118702842 0.0
3.391580469276819 0.5673489147038103 0.0
3.035026488699165 0.6179797538177514 0.0
2.449819864663089 1.055109427275025 0.0
2.27653308928065 1.054384468582349 0.0
2.794675693196835 1.418106589018447 0.0
2.778866980525137 1.083577784614141 0.0
2.244522876020972 0.1116738824400324 0.0
2.755477123979027 1.888326117559968 0.0
2.323887028942199 0.8604475039748537 0.0
2.204900210979926 1.747483509451062 0.0
2.794853185869193 0.2526222191943996 0.0
2.320767315286541 1.530441598510029 0.0
1.550828143561484 1.606851581022188 0.0
2.796593663741882 1.288013595743853 0.0
3.436143660897262 0.3940652474171653 0.0
2.682379445750112 0.4493639922429763 0.0
3.242313228541417 0.154845696987206 0.0
1.75965289115187 1.844031320058407 0.0
1.3642341383496 1.159631408929946 0.0
1.980047380836635 1.36362624976796 0.0
2.070303834520089 1.451946835577872 0.0
2.55866460451515 1.229901920133861 0.0
4.26844523535139 0.499131154814159 0.0
0.7315547646486098 1.500868845185841 0.0
2.716116351489881 1.570657861970705 0.0
2.283245236086922 0.4299499540566049 0.0
4.50573905238033 0.204273435313806 0.0
0.4942609476196695 1.795726564686194 0.0
3.605070352001925 0.644396355247622 0.0
3.171946621948212 0.9019117497969773 0.0
3.40309695214227 0.1789624633199048 0.0
1.59690304785773 1.821037536680094 0.0
4.776800700354217 0.5074282293075529 0.0
0.2231992996457826 1.492571770692447 0.0
1.293020597407515 1.839015256431498 0.0
3.706979402592485 0.1609847435685022 0.0
1.398281395597716 1.351857389185529 0.0
2.880181082677912 0.1378504756446906 0.0
2.119200639021148 1.861833157788504 0.0
2.408646939494887 0.2452196658480275 0.0
2.591353060505113 1.754780334151973 0.0
1.146570081566377 1.160946826906423 0.0
3.853429918433624 0.8390531730935771 0.0
2.920846657438631 1.149071660619678 0.0
2.101132283911678 1.226382957654413 0.0
2.903672483971366 0.7774662795474147 0.0
2.516386521935266 0.571665255016536 0.0
2.475412447847437 1.444413760085193 0.0
2.903041575637174 0.5510905120278109 0.0
3.666476299189054 0.8553176740217776 0.0
1.558137053653031 1.119389262041809 0.0
3.867595456948903 0.1475874639835382 0.0
1.132404543051097 1.852412536016462 0.0
2.635017655944937 0.9730281566682446 0.0
2.436667490139274 1.901171080200935 0.0
2.563332509860726 0.09882891979906516 0.0
2.091598337090247 1.040423151014485 0.0
0.8316881289508771 1.172977685150089 0.0
4.168311871049123 0.827022314849911 0.0
3.648565743761548 0.3681286963687066 0.0
1.355037313653319 1.636865536133179 0.0
2.58412781071005 1.576586299624529 0.0
2.41587218928995 0.4234137003754711 0.0
2.083716468691946 0.6634832154935376 0.0
1.843942294678346 1.256771801786488 0.0
[...]
POINT_DATA 380

VECTORS Velocity float
0.0000000000000000 0.0000000000000000 0.0
0.0000000000000000 0.0000000000000000 0.0
0.0000000000000000 0.0000000000000000 0.0
0.0000000000000000 0.0000000000000000 0.0
0.0000000000000000 0.0000000000000000 0.0
0.9186863984879515 -0.1330506920920408 0.0
0.0000000000000000 0.0000000000000000 0.0
0.0000000000000000 0.0000000000000000 0.0
0.0000000000000000 0.0000000000000000 0.0
0.0000000000000000 0.0000000000000000 0.0
0.0000000000000000 0.0000000000000000 0.0
0.0000000000000000 0.0000000000000000 0.0
0.0000000000000000 0.0000000000000000 0.0
0.0000000000000000 0.0000000000000000 0.0
0.0000000000000000 0.0000000000000000 0.0
0.0000000000000000 0.0000000000000000 0.0
0.0000000000000000 0.0000000000000000 0.0
0.0000000000000000 0.0000000000000000 0.0
0.0000000000000000 0.0000000000000000 0.0
0.0000000000000000 0.0000000000000000 0.0
0.0000000000000000 0.0000000000000000 0.0
0.0000000000000000 0.0000000000000000 0.0
0.0000000000000000 0.0000000000000000 0.0
0.0000000000000000 0.0000000000000000 0.0
0.0000000000000000 0.0000000000000000 0.0
0.0000000000000000 0.0000000000000000 0.0
0.0000000000000000 0.0000000000000000 0.0
0.0000000000000000 0.0000000000000000 0.0
0.0000000000000000 0.0000000000000000 0.0
0.0000000000000000 0.0000000000000000 0.0
0.0000000000000000 0.0000000000000000 0.0
0.0000000000000000 0.0000000000000000 0.0
0.0000000000000000 0.0000000000000000 0.0
0.0000000000000000 0.0000000000000000 0.0
0.0000000000000000 0.0000000000000000 0.0
0.0000000000000000 0.0000000000000000 0.0
0.0000000000000000 0.0000000000000000 0.0
0.0000000000000000 0.0000000000000000 0.0
0.0000000000000000 0.0000000000000000 0.0
0.0000000000000000 0.0000000000000000 0.0
0.0000000000000000 0.0000000000000000 0.0
0.0000000000000000 0.0000000000000000 0.0
0.0000000000000000 0.0000000000000000 0.0
1.1552064225010712 0.3641172095993322 0.0
0.7957337654909048 0.0632454240373918 0.0
1.1395641911196142 -0.2966078503853010 0.0
0.0000000000000000 0.0000000000000000 0.0
0.0000000000000000 0.0000000000000000 0.0
0.0000000000000000 0.0000000000000000 0.0
0.0000000000000000 0.0000000000000000 0.0
0.0000000000000000 0.0000000000000000 0.0
0.0000000000000000 0.0000000000000000 0.0
0.0000000000000000 0.0000000000000000 0.0
0.0000000000000000 0.0000000000000000 0.0
0.0000000000000000 0.0000000000000000 0.0
0.0000000000000000 0.0000000000000000 0.0
0.0000000000000000 0.0000000000000000 0.0
0.0000000000000000 0.0000000000000000 0.0
0.0000000000000000 0.0000000000000000 0.0
0.0000000000000000 0.0000000000000000 0.0
0.0000000000000000 0.0000000000000000 0.0
0.0000000000000000 0.0000000000000000 0.0
0.0000000000000000 0.0000000000000000 0.0
0.0000000000000000 0.0000000000000000 0.0
0.0000000000000000 0.0000000000000000 0.0
0.0000000000000000 0.0000000000000000 0.0
0.0000000000000000 0.0000000000000000 0.0
0.0000000000000000 0.0000000000000000 0.0
0.0000000000000000 0.0000000000000000 0.0
0.0000000000000000 0.0000000000000000 0.0
0.0000000000000000 0.0000000000000000 0.0
0.0000000000000000 0.0000000000000000 0.0
0.0000000000000000 0.0000000000000000 0.0
0.0000000000000000 0.0000000000000000 0.0
0.0000000000000000 0.0000000000000000 0.0
0.0000000000000000 0.0000000000000000 0.0
0.0000000000000000 0.0000000000000000 0.0
0.0000000000000000 0.0000000000000000 0.0
0.0000000000000000 0.0000000000000000 0.0
1.0000000000000000 0.0000000000000000 0.0
1.0000000000000000 0.0000000000000000 0.0
1.0000000000000000 0.0000000000000000 0.0
0.9022227883848734 -0.7968132974477897 0.0
0.7910506386159296 -0.8141256630555462 0.0
1.5079806236766069 -0.2589979425318806 0.0
1.4505088146348843 -0.2549650734815231 0.0
0.5814177198845913 -1.1797320843438632 0.0
0.2883246257960848 -0.2055027099268401 0.0
0.2510723942154070 -0.1995321384046263 0.0
0.5666084107671091 -1.2072461621409327 0.0
1.5740927178372093 -0.0778306174858428 0.0
1.6107400406055585 -0.1180559768027303 0.0
0.2766966807299349 -0.6992588210914918 0.0
0.2556969247931236 -0.6287664268880306 0.0
1.1486208274855476 -0.9986456351860572 0.0
0.7068970520367214 -0.1946712623483208 0.0
0.6719822128657353 -0.1822309880597777 0.0
1.1496787876475021 -0.9062945809578535 0.0
1.6001099610511753 -0.0189210896877086 0.0
1.5975250248581434 -0.0085454675138322 0.0
1.4940888268550083 -0.3601331207882745 0.0
1.5007875345634925 -0.0648068227053787 0.0
1.4415343814101396 -0.3215606754450239 0.0
0.2525863498755856 -0.8588221740381681 0.0
1.5148103947998004 -0.0691931027489976 0.0
1.5836895315004396 0.0096482023573653 0.0
1.5335012141739728 0.0359218691649990 0.0
1.2708509499038001 -0.4919211954515984 0.0
0.6789783302060463 -1.1457726037819218 0.0
1.1695539188425723 -0.4438313489772578 0.0
0.6718080463850398 -1.1551286553032447 0.0
0.0674142708067194 -0.0691375126240127 0.0
0.0561473459577806 -0.0625454869902673 0.0
1.1889849832298920 -0.0825962366040271 0.0
1.1172267161720055 -0.0911755337129352 0.0
0.1191158929828765 -0.3416990141548691 0.0
0.0870440315481031 -0.2828323183900326 0.0
0.1702874333622288 -0.7738391860973899 0.0
0.4856017384152089 -0.9562432470091490 0.0
0.4644774043105847 -0.5504932064968723 0.0
0.5295209365971018 -0.5465022518367787 0.0
1.3916273483446566 -0.0115716440744295 0.0
1.3068151672249060 -0.0808087049532351 0.0
0.8118005037775833 -0.1266884487887446 0.0
0.8751980191444145 -0.1286947094154451 0.0
0.5604112397488432 -1.0161202223333650 0.0
0.6227539645553174 -1.1238118720191987 0.0
0.3116583809400660 -0.0315652484194858 0.0
0.2925580237770811 -0.0362591905899293 0.0
1.2780111752842305 0.0120832576154130 0.0
1.2786943628996437 0.0086324756551983 0.0
0.4599218120754440 -1.0312934403088474 0.0
1.2570090821950863 -0.0000265057908505 0.0
0.8676739497911526 -1.0765229307748663 0.0
0.7798093992615289 -0.4583894597831950 0.0
0.7948134812274080 -0.4973304561153086 0.0
0.0214719824948308 -0.3859534175687456 0.0
1.4963132324168977 -0.5539295678060582 0.0
0.0632600606547221 -0.4131220394852173 0.0
1.3446111081862773 0.0065168838931004 0.0
1.3448873847773397 0.0149122579679664 0.0
1.1109884193461763 -0.7628876737014597 0.0
1.3761948065948810 -0.0383738946740448 0.0
1.3737047208804101 -0.0565332135886726 0.0
0.0573704888179095 -0.1212751695479460 0.0
0.0496842407574853 -0.1065572194766533 0.0
0.7919574786032858 -0.0091050304522243 0.0
0.7765140528094920 -0.0264973466118406 0.0
1.2483354799318720 -0.5813924911754408 0.0
1.2440850074157377 -0.1028246527839650 0.0
1.4395378877828156 -0.5623802855113735 0.0
1.5341221444907793 -0.0924432378387435 0.0
1.2068950483380694 -0.0640329142283984 0.0
0.6485223433633368 -1.2087457374947512 0.0
0.9229989408716999 -0.9396573172350803 0.0
0.7947608193302625 -1.2217063023989456 0.0
1.0812623531110672 -0.0615452164999214 0.0
0.5853078812078394 -0.8696385637192526 0.0
1.0658068248851411 -0.0513982944109592 0.0
1.0674937249137499 -0.0522359660781154 0.0
1.5769696930692789 -0.0704605924759950 0.0
0.1019377331303070 -0.0392979878323231 0.0
0.0918496440074641 -0.0371538962104473 0.0
1.0300587622233874 -0.8968724741396619 0.0
0.0433608017746087 -0.2117110247730458 0.0
0.4853505736991324 -0.7311757421337288 0.0
0.2424553268911973 -0.8087595673248975 0.0
1.5627158282309792 -0.1667744836374200 0.0
1.2289333519472816 -0.2189798707506797 0.0
1.2102092804608289 -0.2003677560312486 0.0
1.1825187875657248 -0.2671816791194946 0.0
0.4271948613490941 -0.2200490545805047 0.0
0.4600967853648472 -0.2133236752409491 0.0
1.2618067446434869 -0.2930900492383001 0.0
1.0452113476824720 -0.0261773924132746 0.0
1.0432936272410103 -0.0270324389962420 0.0
0.9415793939023988 -0.1115137612193793 0.0
1.0108320300551179 -0.1164625587124322 0.0
0.2769042715795280 -0.0508757469340881 0.0
0.2675086642989019 -0.0477569781177518 0.0
0.8383182391419056 -0.0204834410544732 0.0
1.5788767808818576 -0.1556585389463488 0.0
0.0195171694545330 -0.0174512453341226 0.0
0.0151367828857436 -0.0156987994786910 0.0
1.5372102717194720 -0.0975850917900477 0.0
1.5695960271833416 -0.1272035380949916 0.0
0.1373915571847941 -0.5138331268633879 0.0
1.0960232040199944 0.2305873424474935 0.0
1.0937577525000863 0.2310232819402752 0.0
0.2841928301084781 -0.5149650870595935 0.0
0.2425207151909716 -0.4550834416385919 0.0
0.6602641352299545 -1.0102203702573775 0.0
0.9299831222358996 -0.0550587148294237 0.0
0.8825941303160786 -0.1814167567140934 0.0
0.0383563867368862 -0.1979991585937353 0.0
0.4691801598777818 -1.1164368128502529 0.0
0.2611425966611916 -0.8473382347538843 0.0
0.7903829802856077 -0.1267025030153279 0.0
1.1348589774222144 -0.7929847853278595 0.0
1.5607552389045130 -0.0521055142895505 0.0
0.5662736232928818 -1.1200338429146639 0.0
0.0272235824291256 -0.3350751818211165 0.0
1.1035116693599984 -0.6613633093285924 0.0
0.0656787411706792 -0.3116747714108618 0.0
0.8015845208273172 -1.0251603827078726 0.0
0.4092276429820733 -0.0210367525339337 0.0
0.4315127843323073 -0.0187933646236812 0.0
0.0448006246841146 -0.1037032531731595 0.0
0.0251857013914097 -0.0327877997895227 0.0
0.0201051575678186 -0.0284990092130608 0.0
1.2763451878490639 -0.7649632256676495 0.0
0.9671663266564148 -0.6314869930428469 0.0
0.5866504667959282 -1.1637909844435184 0.0
0.0314932214506894 -0.1267315200819676 0.0
0.8660403282413155 0.1645692334103447 0.0
0.8388176567991138 0.1312632795972512 0.0
0.1574180483084858 -0.1739810995081375 0.0
0.1357644933553350 -0.1590200627435730 0.0
1.6417438992044457 -0.1212562633887963 0.0
1.5983225060271120 -0.3236618119094541 0.0
0.6625544324516456 -1.2056740918927968 0.0
0.7068672500743061 -1.1402616178633560 0.0
0.1436126566394086 -0.4448307354988715 0.0
0.4192195306960827 -1.0854811538127564 0.0
0.0359545451390555 -0.0265257673954172 0.0
0.0416265209179579 -0.0289966952519505 0.0
0.4514975417422667 -1.0628054917604453 0.0
0.6522745669203132 -0.1348102857330889 0.0
0.6153213777926638 -0.1206150002235515 0.0
0.9888888441851552 -0.4267281805628125 0.0
1.3579816472895094 -0.0315325682500358 0.0
0.1582978596173158 -0.6195746952066703 0.0
1.3036420255907994 -0.0643226955668531 0.0
0.9413008033606988 -0.4007333338546332 0.0
0.5035478577419269 -0.0330485428874573 0.0
0.5278249809001802 -0.0360546632113213 0.0
0.8940692951015624 -0.0198127568870873 0.0
1.5363890972913341 -0.3493402226702233 0.0
1.4634927363455068 -0.4084349098781868 0.0
0.5844567344526586 -1.0357431210521633 0.0
1.6000790889332099 -0.0534676495244190 0.0
1.5899102219857988 -0.0449144120910772 0.0
0.2241061781921648 -0.3098048470190626 0.0
0.1925371719660268 -0.2867454060172035 0.0
0.7798336453873569 -0.1433694957231027 0.0
0.8007844532291879 -0.1598576684746513 0.0
1.5594939284458063 -0.0763241718332364 0.0
0.5618691718630210 -0.0578029848587296 0.0
0.6329375474789020 -0.0789607130978672 0.0
0.6584075458296837 -0.0808476562671122 0.0
1.2611471622078483 0.0574179531128039 0.0
1.2108926814589787 0.0466295954346820 0.0
0.6388591975277008 0.0333190618564912 0.0
0.6393815978900709 0.0306324042692319 0.0
1.4567209204993736 -0.0527077841774267 0.0
0.3139613458767556 -0.0549702600590117 0.0
0.3322079323120604 -0.0590798100775435 0.0
0.2395532244324376 -0.1159052251553048 0.0
0.2609472920530030 -0.1180008054097030 0.0
0.7323253905103559 0.0588728755694366 0.0
0.7338795359947575 0.1059100812270403 0.0
0.0382661926954523 -0.3682491187303515 0.0
1.3145156070354367 -0.7123400213517456 0.0
1.3437642784578536 -0.7429144538004637 0.0
0.6733963572399766 -0.6541006091818529 0.0
0.7681086256241957 -0.5879412819692174 0.0
1.4214234334744678 -0.4220917083043007 0.0
0.6071735566823603 0.0251145258545612 0.0
0.6301088699186681 -0.0169436204002559 0.0
0.5367687106882739 -0.1090885366575616 0.0
0.5392960889136906 -0.1067409115379350 0.0
0.6762766237004738 -1.2351576783396101 0.0
0.0981898428517048 -0.0247119867959192 0.0
0.0927932598990634 -0.0256093665561649 0.0
0.5749143803132034 -0.7377128383101474 0.0
0.6719468746584142 -0.0977770426033987 0.0
0.6706088394917293 -0.1056599006469598 0.0
1.3083642600434273 -0.1395003689329373 0.0
1.3142257122434249 -0.1135175130891827 0.0
0.4702672713805717 -0.3250568133771568 0.0
0.4096717852891125 -0.3243646051169839 0.0
-0.0014532204256148 -0.1684799174311662 0.0
1.3702722442761750 -0.1478872163759103 0.0
0.6102175350008321 -0.8083656085322256 0.0
0.1186180087887765 -0.4389874983925659 0.0
0.4364563917764222 -0.7278591476804440 0.0
0.9815096644950240 -0.9728953942416052 0.0
0.8959795102873898 -1.1526614607798453 0.0
1.4968176071729604 -0.0649628878094793 0.0
1.4924098541391719 -0.0962233146820971 0.0
0.6469686754146969 -1.2236209765870618 0.0
1.0422833496510806 -0.2705014154526359 0.0
0.9921536922692812 -0.2196212857648048 0.0
0.5146434207189113 -0.1630791919170189 0.0
0.4963806829925778 -0.1688216615932135 0.0
1.5590873409091421 -0.1079436009034742 0.0
0.9822321549269150 -1.0889006671916590 0.0
0.4140408276939394 -1.0702666950415367 0.0
1.2122259307733989 -0.1681054424434327 0.0
1.5662929343125931 -0.0916422129286419 0.0
1.5757491787087705 -0.0966515152301205 0.0
1.2838600544007437 -0.1696734177457750 0.0
0.1012689309057431 -0.0106075997986738 0.0
0.1094958706166499 -0.0088656772978351 0.0
0.4210330581706180 0.0678969024759083 0.0
1.3620773758253375 -0.1373073493509973 0.0
1.3220165560611887 0.0337433920846056 0.0
0.4373488171910314 -0.8994228293569131 0.0
0.1178374782322875 -0.2370964873548762 0.0
0.0955679635064741 -0.2036198395145005 0.0
0.1603735788231941 -0.0856934298084977 0.0
0.1420679996111093 -0.0807917167851080 0.0
0.3742054879108437 -0.6556751638363602 0.0
0.0044832407048514 -0.1233940121256721 0.0
0.9035106469076952 -0.8581761348641249 0.0
0.5211751035560833 0.0366181219745102 0.0
0.5042031609538133 0.0190485917761362 0.0
1.4810838909061437 -0.0480561433144342 0.0
1.4811637706431047 -0.0597120069201586 0.0
0.9428514427041349 -1.0798696529349536 0.0
1.5989394786812829 -0.1690935093615914 0.0
0.4292515986889210 -0.0484034096764782 0.0
0.0230965722726544 -0.0429604566199799 0.0
0.0165820507905574 -0.0369904739081047 0.0
0.3722490542023872 -0.8166434858814529 0.0
0.0219957659546621 -0.1151079285338864 0.0
0.7204614514482782 -0.9221954657175990 0.0
1.4486535604555431 -0.1396226083124496 0.0
0.6459072380261032 -0.4153248667363280 0.0
0.6030140536318329 -0.4339305861886568 0.0
0.6278194256322818 -1.1888537772480205 0.0
0.6699502673340394 0.0781965050879922 0.0
0.6671215065092896 0.0808468627884452 0.0
0.7838199984203167 -1.1437138199874848 0.0
0.1267931394110650 -0.6201113196111689 0.0
0.1085432379923747 -0.4864379303085161 0.0
0.0072996137674244 -0.1192216452750936 0.0
0.8421462991685218 0.0649235522028326 0.0
0.8048080016107013 0.0968703057985022 0.0
0.8330010200678321 -0.0507650517099907 0.0
0.8045320150388737 -0.0670672298214969 0.0
0.3150302331089904 -0.8894694718272567 0.0
0.6473141263626979 -0.1519590530442869 0.0
0.7700730072491424 -1.0040240294176970 0.0
1.3592439126171709 -0.7779244812013889 0.0
0.5345722477003219 0.0844081419665113 0.0
1.4804556295313123 -0.0118850394314610 0.0
1.4841895587727323 -0.0079480305684370 0.0
1.0400913901743425 -1.0143977606733954 0.0
0.7314689595253834 -1.1639487337699714 0.0
1.3272309004242346 -0.1582536294806007 0.0
0.7070604198874554 -1.1963454904972279 0.0
0.0779416362251229 -0.4095319621362729 0.0
1.1827948591132094 -0.0571482402393405 0.0
0.3744738425214287 -0.9435195783005889 0.0
1.6516913359591827 -0.0919696857608529 0.0
0.4111770651600186 -0.0051595360104307 0.0
1.5811849496064307 -0.0861281441355629 0.0
1.5503485507233310 -0.0993005807858068 0.0
-0.0032082322936847 -0.0006760204659428 0.0
-0.0019437696942171 -0.0005878838379221 0.0
0.5346948363402565 0.0425932984076285 0.0
0.3445756303048116 -0.0456227433828909 0.0
-0.0012045067316875 -0.0060264593532559 0.0
-0.0000425917436520 -0.0065714003877746 0.0
0.5562333389161519 -0.0345428477745380 0.0
0.6322589150730963 -0.8806649422598499 0.0
0.5591140706233828 -0.0341100808816910 0.0
0.5532153558053169 -0.0270601474836231 0.0
0.6924869406177827 -0.3102297609762056 0.0
0.7397593593927851 -0.3056835769258175 0.0
0.6331281882764946 -0.7629726878959705 0.0
0.3105956077903163 -0.3940954515518502 0.0
0.3560923568276810 -0.4304914263789035 0.0
0.0014804536669270 -0.0020620572556160 0.0
-0.0008688205993452 -0.0020585965863481 0.0
1.2944680380335416 -0.4726146847400780 0.0
1.3422028128298855 -0.6507890408639808 0.0
0.9337344938595490 -0.6126226430621179 0.0
0.7544841059622707 -0.4382721866100039 0.0
