# vtk DataFile Version 3.0
LucasCarvalhoTCC Results
ASCII

DATASET POLYDATA
FIELD FieldData 1
TIME 1 1 double
0.1

POINTS 380 float
0.0 2.0 0.0
2.0 2.0 0.0
3.0 2.0 0.0
3.0 1.0 0.0
5.0 1.0 0.0
5.0 0.0 0.0
3.0 0.0 0.0
2.0 0.0 0.0
2.0 1.0 0.0
0.0 1.0 0.0
0.2643114543905713 2.0 0.0
0.5169795502969444 2.0 0.0
0.7585171880292413 2.0 0.0
0.9894145836600268 2.0 0.0
1.210140497826619 2.0 0.0
1.421143008568911 2.0 0.0
1.622850459538253 2.0 0.0
1.815672303789548 2.0 0.0
2.188552664328277 2.0 0.0
2.359329284173903 2.0 0.0
2.514005696104645 2.0 0.0
2.654099788331341 2.0 0.0
2.780986322989182 2.0 0.0
2.895910470953052 2.0 0.0
3.0 1.9 0.0
3.0 1.8 0.0
3.0 1.7 0.0
3.0 1.6 0.0
3.0 1.5 0.0
3.0 1.4 0.0
3.0 1.3 0.0
3.0 1.2 0.0
3.0 1.1 0.0
3.105031513416626 1.0 0.0
3.221094637894669 1.0 0.0
3.349348047908936 1.0 0.0
3.491072094154001 1.0 0.0
3.647681638607018 1.0 0.0
3.820740106959136 1.0 0.0
4.011975186625977 1.0 0.0
4.223295996958671 1.0 0.0
4.456812096249916 1.0 0.0
4.714854728122151 1.0 0.0
5.0 0.7500000000000003 0.0
5.0 0.5000000000000012 0.0
5.0 0.2500000000000011 0.0
4.735688545609428 0.0 0.0
4.483020449703056 0.0 0.0
4.241482811970759 0.0 0.0
4.010585416339973 0.0 0.0
3.789859502173381 0.0 0.0
3.578856991431089 0.0 0.0
3.377149540461747 0.0 0.0
3.184327696210452 0.0 0.0
2.811447335671723 0.0 0.0
2.640670715826097 0.0 0.0
2.485994303895355 0.0 0.0
2.345900211668659 0.0 0.0
2.219013677010818 0.0 0.0
2.104089529046948 0.0 0.0
2.0 0.1 0.0
2.0 0.2 0.0
2.0 0.3 0.0
2.0 0.4 0.0
2.0 0.5 0.0
2.0 0.6 0.0
2.0 0.7 0.0
2.0 0.8 0.0
2.0 0.9 0.0
1.894968486583374 1.0 0.0
1.77890536210533 1.0 0.0
1.650651952091063 1.0 0.0
1.508927905845999 1.0 0.0
1.352318361392982 1.0 0.0
1.179259893040864 1.0 0.0
0.9880248133740233 1.0 0.0
0.7767040030413299 1.0 0.0
0.5431879037500846 1.0 0.0
0.2851452718778493 1.0 0.0
0.0 1.25 0.0
0.0 1.499999999999999 0.0
0.0 1.749999999999999 0.0
2.426045913985508 1.348290599604586 0.0
2.562221387987337 0.6558377602558874 0.0
1.966703786708101 1.492474555319359 0.0
3.033486484223225 0.4973568340887861 0.0
2.371610747520728 0.97814425147097 0.0
2.648098402859118 1.648016516253387 0.0
2.351901597140882 0.3519834837466129 0.0
2.694321138879857 1.061432730999581 0.0
1.441644339445862 1.496646809257773 0.0
3.554831642064292 0.501744031268764 0.0
2.720742750697982 1.350625068836981 0.0
2.282037541072919 0.639419348257894 0.0
2.813390610951134 0.7911761792959446 0.0
2.310700631729327 1.679155452525512 0.0
2.688751528716965 0.3206838402855661 0.0
2.211165393176843 1.213708510063781 0.0
0.9449004170027906 1.496357611130017 0.0
4.05509958299721 0.5036423888699835 0.0
3.025501657200047 0.7528388163714679 0.0
1.714778657098197 1.300039655550584 0.0
1.958264922640818 1.245975101752485 0.0
2.206386339371814 0.8500000000000001 0.0
3.336706349465057 0.704398544338507 0.0
4.529565928894533 0.555233644424822 0.0
0.4704340711054673 1.444766355575178 0.0
2.186983355180128 1.461437746541105 0.0
2.553715879020142 0.8859594914241276 0.0
2.782212276375736 0.5474565156445963 0.0
2.500206140967324 1.148517546040804 0.0
2.803373162317882 1.783880361314082 0.0
2.196626837682118 0.2161196386859174 0.0
1.735623536927746 1.664129737658362 0.0
3.268802735993943 0.3358439745752063 0.0
2.799454045372581 1.51553500056848 0.0
2.18762015375897 0.4992029885790829 0.0
2.813478812948685 1.18678600527921 0.0
2.400994471757771 0.7612313552289275 0.0
2.405444563947088 0.5311203927463914 0.0
2.583195945356847 1.473216966241769 0.0
3.734210872783077 0.7260959952797862 0.0
1.256500988572085 1.265010492624376 0.0
2.938353069321001 0.2909212553641365 0.0
2.061245308362322 1.709221243241415 0.0
2.182240881432738 1.001025052084926 0.0
2.830214026212788 0.9796244234047695 0.0
2.49023894829247 1.787687811117195 0.0
2.50976105170753 0.2123121888828049 0.0
1.194806886820808 1.686899295332255 0.0
3.805193113179192 0.3131007046677451 0.0
2.655039231860651 1.208917360245127 0.0
1.493530449555064 1.231198576616718 0.0
2.345622594939228 1.152685186835846 0.0
2.41380980106708 1.521513100394759 0.0
2.58979513084283 0.4863225267637531 0.0
2.135472648094309 0.7246460081196311 0.0
2.912574128751924 0.660128736186259 0.0
2.866043013605144 1.353074765380587 0.0
0.6928324624395237 1.69170809873467 0.0
4.307167537560476 0.3082919012653306 0.0
2.071506740582853 1.128535871978767 0.0
0.6831902494895832 1.302725441792086 0.0
4.316809750510417 0.6972745582079137 0.0
2.85534466702333 1.667491236848871 0.0
2.141886244104996 0.336139391754002 0.0
1.447743165823209 1.773242752731258 0.0
3.554386585610856 0.224002072703283 0.0
2.96485662756902 0.8593908564801968 0.0
3.240425509636175 0.8099760775594669 0.0
2.088410584923666 1.339747073830609 0.0
3.277530767974837 0.4939020807639749 0.0
3.534313505233912 0.7935179117986669 0.0
2.546683861402325 1.011736398479819 0.0
2.664793655038503 0.758149595673951 0.0
2.7009922066801 0.9086021996324817 0.0
1.844652141496971 1.153158997353228 0.0
2.575910747861113 1.316876286520138 0.0
3.994328863599566 0.7454319923658932 0.0
1.005671136400434 1.254568007634107 0.0
1.722192091537185 1.482888323667831 0.0
2.644751416415203 1.850904811198953 0.0
2.355248583584797 0.1490951888010467 0.0
2.31560379269905 1.25706851182614 0.0
2.129697972466254 0.5864366202645266 0.0
2.417220568140766 0.6397160301847872 0.0
2.867945749403976 1.069821281672812 0.0
3.182303046124178 0.6739667261124369 0.0
4.702774994215813 0.2953677284017739 0.0
0.2972250057841874 1.704632271598226 0.0
2.90043748182062 0.4316738443013928 0.0
2.486081387366873 0.3514585853722887 0.0
2.513918612633127 1.648541414627711 0.0
2.086778258621772 1.563111332603502 0.0
4.025359850459486 0.2638518716814435 0.0
0.9746401495405139 1.736148128318556 0.0
3.116389458098145 0.2933651166122753 0.0
1.885410353788165 1.707062521230272 0.0
2.327134732627959 1.833634230002939 0.0
2.672865267372041 0.1663657699970617 0.0
1.675899428547673 1.15999616666306 0.0
1.858973331615206 1.373382723203102 0.0
2.860266039499884 1.862282581689995 0.0
2.139733960500116 0.1377174183100045 0.0
1.257473476073173 1.479081588926576 0.0
3.731624273377778 0.5208146070195914 0.0
2.115038607594509 0.9238947313642476 0.0
0.2734661728051435 1.270630989444945 0.0
4.726533827194856 0.7293690105550548 0.0
2.699965708650878 1.465007479364728 0.0
2.298365077320068 0.5341069340550768 0.0
2.510583000486659 0.7602856732279889 0.0
3.370667741214912 0.8392397884376295 0.0
3.067541604254986 0.8806352314757129 0.0
2.90073732483139 1.443475210354718 0.0
2.264071206758208 0.9501943312745662 0.0
2.278663096491763 0.7489636980394857 0.0
1.952511813454414 1.110576661474517 0.0
2.744352083917141 0.687787375233183 0.0
1.566252941493004 1.383661493752942 0.0
2.437660520624072 0.8703573012735125 0.0
2.904826075218911 1.261819176983655 0.0
2.305967018083784 1.391390767447104 0.0
2.105729326736999 0.8145314366030645 0.0
2.428967188976762 1.236966721617647 0.0
3.060475488407204 0.1442825789852263 0.0
1.934979199332455 1.852811714602595 0.0
2.095475260770118 0.4348597444661615 0.0
2.914777085426361 1.759093454264707 0.0
2.084827330449114 0.2414252069642749 0.0
2.207128288422204 1.315477221019454 0.0
2.658751426439581 0.5773232450959589 0.0
2.612380011409894 1.114144853433198 0.0
2.897371573983894 1.569769587751228 0.0
0.5001010519014215 1.226918930408543 0.0
4.499898948098578 0.7730810695914568 0.0
2.753086810589338 1.690362801865437 0.0
2.246793053318422 0.3097947118702842 0.0
3.391580469276819 0.5673489147038103 0.0
3.035026488699165 0.6179797538177514 0.0
2.449819864663089 1.055109427275025 0.0
2.27653308928065 1.054384468582349 0.0
2.794675693196835 1.418106589018447 0.0
2.778866980525137 1.083577784614141 0.0
2.244522876020972 0.1116738824400324 0.0
2.755477123979027 1.888326117559968 0.0
2.323887028942199 0.8604475039748537 0.0
2.204900210979926 1.747483509451062 0.0
2.794853185869193 0.2526222191943996 0.0
2.320767315286541 1.530441598510029 0.0
1.550828143561484 1.606851581022188 0.0
2.796593663741882 1.288013595743853 0.0
3.436143660897262 0.3940652474171653 0.0
2.682379445750112 0.4493639922429763 0.0
3.242313228541417 0.154845696987206 0.0
1.75965289115187 1.844031320058407 0.0
1.3642341383496 1.159631408929946 0.0
1.980047380836635 1.36362624976796 0.0
2.070303834520089 1.451946835577872 0.0
2.55866460451515 1.229901920133861 0.0
4.26844523535139 0.499131154814159 0.0
0.7315547646486098 1.500868845185841 0.0
2.716116351489881 1.570657861970705 0.0
2.283245236086922 0.4299499540566049 0.0
4.50573905238033 0.204273435313806 0.0
0.4942609476196695 1.795726564686194 0.0
3.605070352001925 0.644396355247622 0.0
3.171946621948212 0.9019117497969773 0.0
3.40309695214227 0.1789624633199048 0.0
1.59690304785773 1.821037536680094 0.0
4.776800700354217 0.5074282293075529 0.0
0.2231992996457826 1.492571770692447 0.0
1.293020597407515 1.839015256431498 0.0
3.706979402592485 0.1609847435685022 0.0
1.398281395597716 1.351857389185529 0.0
2.880181082677912 0.1378504756446906 0.0
2.119200639021148 1.861833157788504 0.0
2.408646939494887 0.2452196658480275 0.0
2.591353060505113 1.754780334151973 0.0
1.146570081566377 1.160946826906423 0.0
3.853429918433624 0.8390531730935771 0.0
2.920846657438631 1.149071660619678 0.0
2.101132283911678 1.226382957654413 0.0
2.903672483971366 0.7774662795474147 0.0
2.516386521935266 0.571665255016536 0.0
2.475412447847437 1.444413760085193 0.0
2.903041575637174 0.5510905120278109 0.0
3.666476299189054 0.8553176740217776 0.0
1.558137053653031 1.119389262041809 0.0
3.867595456948903 0.1475874639835382 0.0
1.132404543051097 1.852412536016462 0.0
2.635017655944937 0.9730281566682446 0.0
2.436667490139274 1.901171080200935 0.0
2.563332509860726 0.09882891979906516 0.0
2.091598337090247 1.040423151014485 0.0
0.8316881289508771 1.172977685150089 0.0
4.168311871049123 0.827022314849911 0.0
3.648565743761548 0.3681286963687066 0.0
1.355037313653319 1.636865536133179 0.0
2.58412781071005 1.576586299624529 0.0
2.41587218928995 0.4234137003754711 0.0
2.083716468691946 0.6634832154935376 0.0
1.843942294678346 1.256771801786488 0.0
[...]
POINT_DATA 380

VECTORS Velocity float
0.0000000000000000 0.0000000000000000 0.0
0.0000000000000000 0.0000000000000000 0.0
0.0000000000000000 0.0000000000000000 0.0
0.0000000000000000 0.0000000000000000 0.0
0.0000000000000000 0.0000000000000000 0.0
0.9430047802076412 -0.0784716768964678 0.0
0.0000000000000000 0.0000000000000000 0.0
0.0000000000000000 0.0000000000000000 0.0
0.0000000000000000 0.0000000000000000 0.0
0.0000000000000000 0.0000000000000000 0.0
0.0000000000000000 0.0000000000000000 0.0
0.0000000000000000 0.0000000000000000 0.0
0.0000000000000000 0.0000000000000000 0.0
0.0000000000000000 0.0000000000000000 0.0
0.0000000000000000 0.0000000000000000 0.0
0.0000000000000000 0.0000000000000000 0.0
0.0000000000000000 0.0000000000000000 0.0
0.0000000000000000 0.0000000000000000 0.0
0.0000000000000000 0.0000000000000000 0.0
0.0000000000000000 0.0000000000000000 0.0
0.0000000000000000 0.0000000000000000 0.0
0.0000000000000000 0.0000000000000000 0.0
0.0000000000000000 0.0000000000000000 0.0
0.0000000000000000 0.0000000000000000 0.0
0.0000000000000000 0.0000000000000000 0.0
0.0000000000000000 0.0000000000000000 0.0
0.0000000000000000 0.0000000000000000 0.0
0.0000000000000000 0.0000000000000000 0.0
0.0000000000000000 0.0000000000000000 0.0
0.0000000000000000 0.0000000000000000 0.0
0.0000000000000000 0.0000000000000000 0.0
0.0000000000000000 0.0000000000000000 0.0
0.0000000000000000 0.0000000000000000 0.0
0.0000000000000000 0.0000000000000000 0.0
0.0000000000000000 0.0000000000000000 0.0
0.0000000000000000 0.0000000000000000 0.0
0.0000000000000000 0.0000000000000000 0.0
0.0000000000000000 0.0000000000000000 0.0
0.0000000000000000 0.0000000000000000 0.0
0.0000000000000000 0.0000000000000000 0.0
0.0000000000000000 0.0000000000000000 0.0
0.0000000000000000 0.0000000000000000 0.0
0.0000000000000000 0.0000000000000000 0.0
1.1097218590354971 0.1975062646554195 0.0
0.8986098050493476 -0.0029321259007866 0.0
1.0675225792036285 -0.1489210175611776 0.0
0.0000000000000000 0.0000000000000000 0.0
0.0000000000000000 0.0000000000000000 0.0
0.0000000000000000 0.0000000000000000 0.0
0.0000000000000000 0.0000000000000000 0.0
0.0000000000000000 0.0000000000000000 0.0
0.0000000000000000 0.0000000000000000 0.0
0.0000000000000000 0.0000000000000000 0.0
0.0000000000000000 0.0000000000000000 0.0
0.0000000000000000 0.0000000000000000 0.0
0.0000000000000000 0.0000000000000000 0.0
0.0000000000000000 0.0000000000000000 0.0
0.0000000000000000 0.0000000000000000 0.0
0.0000000000000000 0.0000000000000000 0.0
0.0000000000000000 0.0000000000000000 0.0
0.0000000000000000 0.0000000000000000 0.0
0.0000000000000000 0.0000000000000000 0.0
0.0000000000000000 0.0000000000000000 0.0
0.0000000000000000 0.0000000000000000 0.0
0.0000000000000000 0.0000000000000000 0.0
0.0000000000000000 0.0000000000000000 0.0
0.0000000000000000 0.0000000000000000 0.0
0.0000000000000000 0.0000000000000000 0.0
0.0000000000000000 0.0000000000000000 0.0
0.0000000000000000 0.0000000000000000 0.0
0.0000000000000000 0.0000000000000000 0.0
0.0000000000000000 0.0000000000000000 0.0
0.0000000000000000 0.0000000000000000 0.0
0.0000000000000000 0.0000000000000000 0.0
0.0000000000000000 0.0000000000000000 0.0
0.0000000000000000 0.0000000000000000 0.0
0.0000000000000000 0.0000000000000000 0.0
0.0000000000000000 0.0000000000000000 0.0
0.0000000000000000 0.0000000000000000 0.0
1.0000000000000000 0.0000000000000000 0.0
1.0000000000000000 0.0000000000000000 0.0
1.0000000000000000 0.0000000000000000 0.0
0.6035909243432080 -0.4377489136306348 0.0
0.5669380343700544 -0.4405497894818547 0.0
1.0212095263655903 -0.2385144556590489 0.0
0.9844516576708199 -0.2402669411221933 0.0
0.4286157515026867 -0.6938866011181259 0.0
0.4679836708075991 -0.1373982125953370 0.0
0.4501924388458129 -0.1445694446502052 0.0
0.3728081308852397 -0.7148696575935449 0.0
1.1322145373931456 -0.0509578554257304 0.0
1.1361902649274462 -0.0666387049246154 0.0
0.3112203913280918 -0.3499572895251738 0.0
0.3036578928665586 -0.3560779093131917 0.0
0.7939274538380309 -0.6967850713165468 0.0
0.7351845076425626 -0.1671762636475852 0.0
0.7270726713801984 -0.1705998527785582 0.0
0.7812666415096123 -0.6499851338996683 0.0
1.2230219569555572 -0.0162074545044350 0.0
1.2240238520087301 -0.0141009242122567 0.0
1.2166060359459245 -0.4236318238805272 0.0
1.2112191018772498 -0.1566636226389170 0.0
1.2374472940583285 -0.4009703569197777 0.0
0.1376224748335375 -0.6947175908434365 0.0
1.2172541039592908 -0.1443931463346158 0.0
1.2375448215019642 -0.0046746657821265 0.0
1.2532293111629980 -0.0058000627837338 0.0
0.8310966083090817 -0.3334612442536040 0.0
0.4916501505037586 -0.6152893964636643 0.0
0.7902943523915363 -0.3300438601622933 0.0
0.4742400682015372 -0.5952228626322486 0.0
0.4366936446686248 -0.0226232573314414 0.0
0.4150760830728444 -0.0278677945741204 0.0
1.1138611720612057 -0.0624792590653144 0.0
1.1155056599775304 -0.0642886505450256 0.0
0.3196565266482851 -0.1802515854532091 0.0
0.2837270092680644 -0.1788913925407636 0.0
0.0654820243156465 -0.5562571723766520 0.0
0.3912552237158198 -0.5094315670865072 0.0
0.4520030156110439 -0.2990937305462498 0.0
0.4772935049519579 -0.2838999073944190 0.0
1.2343277923524083 -0.0654792400547981 0.0
1.2192040529208352 -0.0591133412965523 0.0
0.9225696434233451 -0.1279248949805094 0.0
0.9358064593685193 -0.1185822005442148 0.0
0.3761009591664427 -1.0730320152359416 0.0
0.3952701416093873 -1.1159051765221215 0.0
0.6342777724462993 -0.0412824875773653 0.0
0.6196939215522659 -0.0451205358746340 0.0
1.2019631888812927 0.0126777517954985 0.0
1.2037532043943560 0.0118005761375795 0.0
0.3426414672441184 -0.5179585798991785 0.0
1.2372569867463454 -0.0655622129579388 0.0
0.5977383215150742 -0.6430912134199747 0.0
0.6122111748291424 -0.2838643095301120 0.0
0.6177855872611976 -0.2949377974011039 0.0
-0.0252083317039548 -0.3931077991131344 0.0
0.9883230136762748 -0.4592636385896249 0.0
0.1537625019525466 -0.2689495750415185 0.0
1.2549584305445634 0.0136522400853152 0.0
1.2557030025246017 0.0072859163451365 0.0
1.2668346650389217 -0.8992419382257697 0.0
1.2611076330103348 -0.0445985763332347 0.0
1.2595915617423903 -0.0432334326223190 0.0
0.3770084216665072 -0.0605478528784095 0.0
0.3518864478789816 -0.0691427469137135 0.0
0.9759836076524279 -0.0221408052291148 0.0
0.9799466715902452 -0.0266688408975489 0.0
1.3850876589360399 -0.8028546599714534 0.0
1.3289862728824167 -0.1726637435313413 0.0
0.9701679391866231 -0.4303511826476855 0.0
1.0748743327114658 -0.1287742741133345 0.0
1.2539979511899277 -0.0593859304816262 0.0
0.4557560782381572 -0.6402281941749450 0.0
0.6336282030554892 -0.5467731768857301 0.0
0.5538476695438506 -0.7492133546947555 0.0
1.4235996960129880 -0.1884870650599580 0.0
0.4502538495290502 -0.4276305206841429 0.0
1.0722554050209758 -0.0263852843723351 0.0
1.0750185416051656 -0.0245719280811084 0.0
1.0931776764116381 -0.1286989125254642 0.0
0.4345541807956344 -0.0262433863270313 0.0
0.4188345650753268 -0.0292658705033764 0.0
0.6784427497171635 -0.5415501838076937 0.0
0.1754061539548182 -0.1642689617865423 0.0
0.4273024407546039 -0.3861398568952427 0.0
-0.0455757337345747 -0.9889816476062256 0.0
1.1480021490522194 -0.2361364934475901 0.0
1.0931275655986195 -0.0889909619368981 0.0
1.1112796155465023 -0.0774252673518402 0.0
0.8615698391410218 -0.2470382286540783 0.0
0.5293208859969297 -0.1681609345618661 0.0
0.5436306405785223 -0.1603022678883607 0.0
0.8859678212492887 -0.2382063020950216 0.0
1.0647409307251288 0.0016410875882426 0.0
1.0622592724271296 0.0017270845927256 0.0
1.0456672041995487 -0.0929850914370382 0.0
1.0516449415832174 -0.0899202252363303 0.0
0.5852620949275402 -0.0536272618845036 0.0
0.5749597745041298 -0.0549869988367389 0.0
1.1184396562968892 -0.0800611596447223 0.0
1.1072262457233744 -0.2213722776195458 0.0
0.4455066191740225 0.0288586213664951 0.0
0.4233897890124798 0.0250986236827508 0.0
1.1185020124076064 -0.0448589127803622 0.0
1.1273760015583210 -0.0469435843352205 0.0
-0.3773042439164994 -1.1149486885204474 0.0
1.0979306898104446 0.0939430242005623 0.0
1.0934817592832924 0.0924399950118067 0.0
0.3688883686743449 -0.2550559915395374 0.0
0.3522031353901748 -0.2553403918595719 0.0
0.4913171878152435 -0.5271140670405461 0.0
1.1341070810127705 -0.0828539846580048 0.0
1.2744174135409683 -0.4148195286263089 0.0
0.2212133490685677 -0.1253740783829116 0.0
0.2952290232743939 -0.7485601917703402 0.0
0.2521676258795997 -0.4823579364670768 0.0
1.4423925661413926 -0.1958818758901723 0.0
0.7416271922942066 -0.5020842616192815 0.0
1.1329001702198458 -0.0920925601170373 0.0
0.4269395955696640 -0.5965983219041227 0.0
-0.0231420804106630 -0.2658957537723324 0.0
0.7090098401954612 -0.4005407245161549 0.0
-0.0375443208702278 -0.4527897335264107 0.0
0.5488234955286203 -0.5415528582586838 0.0
0.7326851016740000 -0.0338642950970104 0.0
0.7367172166085189 -0.0311731514506705 0.0
0.2841283103751993 -0.0720287248971173 0.0
0.3689899643594085 -0.0165540604019818 0.0
0.3465091922645169 -0.0200143453694281 0.0
0.8483367156910628 -0.5271213224495909 0.0
0.6681511227094543 -0.3857569237539629 0.0
0.4109749191337544 -0.6083144415405830 0.0
0.2906922211041224 -0.0670087279096714 0.0
0.9869758752276977 0.0470091828431667 0.0
0.9870152494492590 0.0506206346380870 0.0
0.4226536669041988 -0.0953246945501147 0.0
0.4042481960272956 -0.1012151734945914 0.0
1.1369594213530849 -0.1045129173451108 0.0
1.0609024841918164 -0.3116700214095409 0.0
0.4732665966902812 -0.6390146837906492 0.0
0.5204448104509480 -0.7572289952090536 0.0
0.2692528310742672 -0.2313119062608646 0.0
0.2667473807232831 -0.7672528392934336 0.0
0.3631261831647454 -0.0263208491397472 0.0
0.3802316359247198 -0.0245435730031122 0.0
0.3431684379100450 -0.6137063232268294 0.0
0.8526438593631572 -0.1352537090953262 0.0
0.8406056991139025 -0.1394922086226766 0.0
0.7144950395779655 -0.2762616660455106 0.0
1.1596191994131280 -0.0497509687651986 0.0
0.1832125652765262 -0.3683234528434141 0.0
1.1545865432884430 -0.0500992310564159 0.0
0.7036553833131020 -0.2764558168810435 0.0
0.7964998629070298 -0.0277368045403277 0.0
0.7966175856152894 -0.0278350006219613 0.0
1.0677095325296113 -0.0392048542545395 0.0
1.0440838314842178 -0.3274653542587759 0.0
0.9535128496778890 -0.3158899310000501 0.0
0.4297481264019498 -0.5191581533623966 0.0
1.1085046097502409 -0.0127812535926202 0.0
1.1106786862913662 -0.0122045634314860 0.0
0.4094897352437732 -0.1601423159949950 0.0
0.3896062624241687 -0.1741242177064497 0.0
0.9680238951992638 -0.0676646209519076 0.0
0.9566846787170239 -0.0668833829424268 0.0
1.1398162901330036 -0.0701361508469639 0.0
1.1095424895577848 -0.2092452549005317 0.0
0.8862707157277659 -0.0620302831320157 0.0
0.8898346736454650 -0.0632597962110840 0.0
1.1141581707817427 0.0042903263852687 0.0
1.1213441029093734 -0.0016223268578668 0.0
0.8908312998579888 0.0181922513188073 0.0
0.8948204670607218 0.0167335372357898 0.0
1.1730388175831019 -0.0611214952417459 0.0
0.6332632747942271 -0.0465667615214181 0.0
0.6396608712957096 -0.0447242763188555 0.0
0.5431514802107005 -0.1162882907555892 0.0
0.5599782084964706 -0.1116482857274312 0.0
0.9505790979597577 0.0365381434062327 0.0
0.9415179194916453 0.0420088705343527 0.0
-0.2557019971223939 -0.4462056867416412 0.0
0.9870772090367070 -0.5953391147577011 0.0
0.9744450962599400 -0.6483292217970034 0.0
0.5310962599295107 -0.3584496607302657 0.0
0.5627388775148942 -0.3226716470241196 0.0
0.9111452311522009 -0.3344879005727054 0.0
0.9406499420467144 -0.0240815685830101 0.0
0.9724941761056407 -0.0813929726953149 0.0
0.8415241319556932 -0.0862315851782880 0.0
0.8388523909728679 -0.0858479926672911 0.0
0.4665545993978752 -0.6913698139321243 0.0
0.4122487957383503 -0.0483964963844900 0.0
0.4015914869987690 -0.0496315952067312 0.0
0.7556782827182948 -1.6180869687749198 0.0
0.9295302915231103 -0.0572730781931727 0.0
0.9270238217265228 -0.0569285506803521 0.0
1.1833151426548028 -0.0798597653570830 0.0
1.1837981978298251 -0.0777735747274495 0.0
0.5017319267836681 -0.2020827208580978 0.0
0.4798253401679337 -0.2090673513041423 0.0
0.0280093840799748 -0.1833291254254651 0.0
1.1827468536597507 -0.2479958882215287 0.0
0.7935309092420859 -1.6985366361569392 0.0
0.2503762584664052 -0.2708793684160520 0.0
0.4020519682999069 -0.3572494068282026 0.0
0.8430411308726743 -0.9376505627879937 0.0
0.6375131373357703 -0.7978401905821270 0.0
1.2200963859331397 -0.0742240456123239 0.0
1.2221408767399131 -0.0828071702586167 0.0
0.4436252570584011 -0.7919873563955272 0.0
0.7811076773174939 -0.2022952229796869 0.0
0.7649167549508162 -0.1956526004637220 0.0
0.6802108710788712 -0.1186795913022455 0.0
0.6680852114976599 -0.1238749318810073 0.0
1.1929335722546806 -0.0695464227399819 0.0
0.6773897263585070 -0.6717791273552108 0.0
0.2718551689347082 -0.6222958603334012 0.0
0.9225919537568719 -0.1693314811788453 0.0
1.1778376451062542 -0.0016808230264171 0.0
1.1800611908195437 -0.0039622125882465 0.0
0.9291785376637838 -0.1588645805977310 0.0
0.4195976799319601 -0.0125688246620424 0.0
0.4328642285950403 -0.0105318588084442 0.0
0.9487693182892147 0.0393772388474842 0.0
1.0041966586296678 -0.1574809246663325 0.0
1.2780540390232011 -0.0622705382730326 0.0
0.3668922434153143 -0.4433903039793190 0.0
0.3801027785797473 -0.1080754484287945 0.0
0.3503341018996816 -0.1175184677679184 0.0
0.5101677700907509 -0.0442489680817340 0.0
0.4904831435164368 -0.0496655657649357 0.0
0.3783176825109762 -0.3455480482452233 0.0
-0.0889426327730911 -0.2060343590259650 0.0
0.6268037674283131 -0.4944562891628078 0.0
0.8301753446855193 0.0101502242077244 0.0
0.8294443458766562 0.0133051656375757 0.0
1.2349618628798811 0.0351656440415983 0.0
1.2328173872053041 0.0372409010849408 0.0
0.6515521946105099 -0.7464062729117001 0.0
1.0888485228770755 -0.2146515721518135 0.0
0.9051073025570304 -0.1013014255322144 0.0
0.3665520228346027 -0.0274131807474178 0.0
0.3354515780793916 -0.0305031100338258 0.0
0.3516569626682879 -0.4368670336936923 0.0
0.2104789313788668 -0.0991954031936352 0.0
0.5162039527386592 -0.4616184126792475 0.0
1.0265827894049493 -0.1534321324821902 0.0
0.5656041293731358 -0.2462639464260564 0.0
0.5459510626117666 -0.2579082216196530 0.0
0.4530339994181607 -0.6310125076606286 0.0
0.9177616249191820 0.0552764573434885 0.0
0.9205752628444890 0.0548767691867718 0.0
0.5504371355372710 -0.6431357839400575 0.0
0.1405933438944889 -0.5279542224231267 0.0
0.1748858425711469 -0.3471064906811667 0.0
0.1103927158550350 -0.0922400700472939 0.0
0.9192077066154433 0.0288833481277609 0.0
0.9230749086389022 0.0270989530763641 0.0
0.9207306870868373 -0.0285798434940771 0.0
0.9210292896075067 -0.0291680631509660 0.0
0.2600356650186902 -0.4849812857850831 0.0
1.6760562095448259 -0.3676914362014986 0.0
0.5539324856783676 -0.5514619947844842 0.0
0.9144395164300233 -0.5455118123545208 0.0
1.0289631650176989 0.0104517186303834 0.0
1.2242824525211171 -0.0653481739607150 0.0
1.2260053941073672 -0.0668783625860957 0.0
0.9529034482810295 -0.9766815971873180 0.0
0.5150442130708560 -0.6221829404556563 0.0
1.3869824189336382 -0.2611717666950938 0.0
0.5044490719974286 -0.7016942464266311 0.0
-0.7961969029703034 -1.3601432829326574 0.0
1.3167377102279667 -0.2562407907133717 0.0
0.3251482989501552 -0.9676970747862952 0.0
1.1520724419803507 -0.1520402348871684 0.0
0.8221037434922730 -0.0127554161637801 0.0
1.2189857777704083 0.0255244256655792 0.0
1.2208341366725313 0.0402841940817017 0.0
0.3129508321072089 0.0207345235037646 0.0
0.3328446027580353 0.0219862217247383 0.0
0.8721512460733361 0.0519231791721231 0.0
0.9260419405527452 -0.2073449296932230 0.0
0.2689584443232650 0.0009701674148176 0.0
0.2863053814195911 0.0023195234266572 0.0
0.8482125777536357 -0.0580937728817452 0.0
0.4924666130491990 -0.4595871176702268 0.0
0.8331859054822051 -0.0096379995283361 0.0
0.8418042733722586 -0.0182113924460838 0.0
0.6162347392350097 -0.2125894740267699 0.0
0.6365036942226284 -0.2038102901430763 0.0
0.4909292509023536 -0.3871484146091910 0.0
0.4274166255327150 -0.2278511495401608 0.0
0.4483740941717936 -0.2268301576871823 0.0
0.4052142390745336 0.0007257256961726 0.0
0.3822647638031639 -0.0002168462408695 0.0
1.4123797128724820 -0.7023861474276681 0.0
0.8498271967272053 -0.4428571936632909 0.0
0.6408122848170676 -0.3565871534645418 0.0
1.6794824008066098 -0.8922653914443729 0.0
