# vtk DataFile Version 3.0
LucasCarvalhoTCC Results
ASCII

DATASET POLYDATA
FIELD FieldData 1
TIME 1 1 double
3.4000000000000004

POINTS 380 float
0.0 2.0 0.0
2.0 2.0 0.0
3.0 2.0 0.0
3.0 1.0 0.0
5.0 1.0 0.0
5.0 0.0 0.0
3.0 0.0 0.0
2.0 0.0 0.0
2.0 1.0 0.0
0.0 1.0 0.0
0.2643114543905713 2.0 0.0
0.5169795502969444 2.0 0.0
0.7585171880292413 2.0 0.0
0.9894145836600268 2.0 0.0
1.210140497826619 2.0 0.0
1.421143008568911 2.0 0.0
1.622850459538253 2.0 0.0
1.815672303789548 2.0 0.0
2.188552664328277 2.0 0.0
2.359329284173903 2.0 0.0
2.514005696104645 2.0 0.0
2.654099788331341 2.0 0.0
2.780986322989182 2.0 0.0
2.895910470953052 2.0 0.0
3.0 1.9 0.0
3.0 1.8 0.0
3.0 1.7 0.0
3.0 1.6 0.0
3.0 1.5 0.0
3.0 1.4 0.0
3.0 1.3 0.0
3.0 1.2 0.0
3.0 1.1 0.0
3.105031513416626 1.0 0.0
3.221094637894669 1.0 0.0
3.349348047908936 1.0 0.0
3.491072094154001 1.0 0.0
3.647681638607018 1.0 0.0
3.820740106959136 1.0 0.0
4.011975186625977 1.0 0.0
4.223295996958671 1.0 0.0
4.456812096249916 1.0 0.0
4.714854728122151 1.0 0.0
5.0 0.7500000000000003 0.0
5.0 0.5000000000000012 0.0
5.0 0.2500000000000011 0.0
4.735688545609428 0.0 0.0
4.483020449703056 0.0 0.0
4.241482811970759 0.0 0.0
4.010585416339973 0.0 0.0
3.789859502173381 0.0 0.0
3.578856991431089 0.0 0.0
3.377149540461747 0.0 0.0
3.184327696210452 0.0 0.0
2.811447335671723 0.0 0.0
2.640670715826097 0.0 0.0
2.485994303895355 0.0 0.0
2.345900211668659 0.0 0.0
2.219013677010818 0.0 0.0
2.104089529046948 0.0 0.0
2.0 0.1 0.0
2.0 0.2 0.0
2.0 0.3 0.0
2.0 0.4 0.0
2.0 0.5 0.0
2.0 0.6 0.0
2.0 0.7 0.0
2.0 0.8 0.0
2.0 0.9 0.0
1.894968486583374 1.0 0.0
1.77890536210533 1.0 0.0
1.650651952091063 1.0 0.0
1.508927905845999 1.0 0.0
1.352318361392982 1.0 0.0
1.179259893040864 1.0 0.0
0.9880248133740233 1.0 0.0
0.7767040030413299 1.0 0.0
0.5431879037500846 1.0 0.0
0.2851452718778493 1.0 0.0
0.0 1.25 0.0
0.0 1.499999999999999 0.0
0.0 1.749999999999999 0.0
2.426045913985508 1.348290599604586 0.0
2.562221387987337 0.6558377602558874 0.0
1.966703786708101 1.492474555319359 0.0
3.033486484223225 0.4973568340887861 0.0
2.371610747520728 0.97814425147097 0.0
2.648098402859118 1.648016516253387 0.0
2.351901597140882 0.3519834837466129 0.0
2.694321138879857 1.061432730999581 0.0
1.441644339445862 1.496646809257773 0.0
3.554831642064292 0.501744031268764 0.0
2.720742750697982 1.350625068836981 0.0
2.282037541072919 0.639419348257894 0.0
2.813390610951134 0.7911761792959446 0.0
2.310700631729327 1.679155452525512 0.0
2.688751528716965 0.3206838402855661 0.0
2.211165393176843 1.213708510063781 0.0
0.9449004170027906 1.496357611130017 0.0
4.05509958299721 0.5036423888699835 0.0
3.025501657200047 0.7528388163714679 0.0
1.714778657098197 1.300039655550584 0.0
1.958264922640818 1.245975101752485 0.0
2.206386339371814 0.8500000000000001 0.0
3.336706349465057 0.704398544338507 0.0
4.529565928894533 0.555233644424822 0.0
0.4704340711054673 1.444766355575178 0.0
2.186983355180128 1.461437746541105 0.0
2.553715879020142 0.8859594914241276 0.0
2.782212276375736 0.5474565156445963 0.0
2.500206140967324 1.148517546040804 0.0
2.803373162317882 1.783880361314082 0.0
2.196626837682118 0.2161196386859174 0.0
1.735623536927746 1.664129737658362 0.0
3.268802735993943 0.3358439745752063 0.0
2.799454045372581 1.51553500056848 0.0
2.18762015375897 0.4992029885790829 0.0
2.813478812948685 1.18678600527921 0.0
2.400994471757771 0.7612313552289275 0.0
2.405444563947088 0.5311203927463914 0.0
2.583195945356847 1.473216966241769 0.0
3.734210872783077 0.7260959952797862 0.0
1.256500988572085 1.265010492624376 0.0
2.938353069321001 0.2909212553641365 0.0
2.061245308362322 1.709221243241415 0.0
2.182240881432738 1.001025052084926 0.0
2.830214026212788 0.9796244234047695 0.0
2.49023894829247 1.787687811117195 0.0
2.50976105170753 0.2123121888828049 0.0
1.194806886820808 1.686899295332255 0.0
3.805193113179192 0.3131007046677451 0.0
2.655039231860651 1.208917360245127 0.0
1.493530449555064 1.231198576616718 0.0
2.345622594939228 1.152685186835846 0.0
2.41380980106708 1.521513100394759 0.0
2.58979513084283 0.4863225267637531 0.0
2.135472648094309 0.7246460081196311 0.0
2.912574128751924 0.660128736186259 0.0
2.866043013605144 1.353074765380587 0.0
0.6928324624395237 1.69170809873467 0.0
4.307167537560476 0.3082919012653306 0.0
2.071506740582853 1.128535871978767 0.0
0.6831902494895832 1.302725441792086 0.0
4.316809750510417 0.6972745582079137 0.0
2.85534466702333 1.667491236848871 0.0
2.141886244104996 0.336139391754002 0.0
1.447743165823209 1.773242752731258 0.0
3.554386585610856 0.224002072703283 0.0
2.96485662756902 0.8593908564801968 0.0
3.240425509636175 0.8099760775594669 0.0
2.088410584923666 1.339747073830609 0.0
3.277530767974837 0.4939020807639749 0.0
3.534313505233912 0.7935179117986669 0.0
2.546683861402325 1.011736398479819 0.0
2.664793655038503 0.758149595673951 0.0
2.7009922066801 0.9086021996324817 0.0
1.844652141496971 1.153158997353228 0.0
2.575910747861113 1.316876286520138 0.0
3.994328863599566 0.7454319923658932 0.0
1.005671136400434 1.254568007634107 0.0
1.722192091537185 1.482888323667831 0.0
2.644751416415203 1.850904811198953 0.0
2.355248583584797 0.1490951888010467 0.0
2.31560379269905 1.25706851182614 0.0
2.129697972466254 0.5864366202645266 0.0
2.417220568140766 0.6397160301847872 0.0
2.867945749403976 1.069821281672812 0.0
3.182303046124178 0.6739667261124369 0.0
4.702774994215813 0.2953677284017739 0.0
0.2972250057841874 1.704632271598226 0.0
2.90043748182062 0.4316738443013928 0.0
2.486081387366873 0.3514585853722887 0.0
2.513918612633127 1.648541414627711 0.0
2.086778258621772 1.563111332603502 0.0
4.025359850459486 0.2638518716814435 0.0
0.9746401495405139 1.736148128318556 0.0
3.116389458098145 0.2933651166122753 0.0
1.885410353788165 1.707062521230272 0.0
2.327134732627959 1.833634230002939 0.0
2.672865267372041 0.1663657699970617 0.0
1.675899428547673 1.15999616666306 0.0
1.858973331615206 1.373382723203102 0.0
2.860266039499884 1.862282581689995 0.0
2.139733960500116 0.1377174183100045 0.0
1.257473476073173 1.479081588926576 0.0
3.731624273377778 0.5208146070195914 0.0
2.115038607594509 0.9238947313642476 0.0
0.2734661728051435 1.270630989444945 0.0
4.726533827194856 0.7293690105550548 0.0
2.699965708650878 1.465007479364728 0.0
2.298365077320068 0.5341069340550768 0.0
2.510583000486659 0.7602856732279889 0.0
3.370667741214912 0.8392397884376295 0.0
3.067541604254986 0.8806352314757129 0.0
2.90073732483139 1.443475210354718 0.0
2.264071206758208 0.9501943312745662 0.0
2.278663096491763 0.7489636980394857 0.0
1.952511813454414 1.110576661474517 0.0
2.744352083917141 0.687787375233183 0.0
1.566252941493004 1.383661493752942 0.0
2.437660520624072 0.8703573012735125 0.0
2.904826075218911 1.261819176983655 0.0
2.305967018083784 1.391390767447104 0.0
2.105729326736999 0.8145314366030645 0.0
2.428967188976762 1.236966721617647 0.0
3.060475488407204 0.1442825789852263 0.0
1.934979199332455 1.852811714602595 0.0
2.095475260770118 0.4348597444661615 0.0
2.914777085426361 1.759093454264707 0.0
2.084827330449114 0.2414252069642749 0.0
2.207128288422204 1.315477221019454 0.0
2.658751426439581 0.5773232450959589 0.0
2.612380011409894 1.114144853433198 0.0
2.897371573983894 1.569769587751228 0.0
0.5001010519014215 1.226918930408543 0.0
4.499898948098578 0.7730810695914568 0.0
2.753086810589338 1.690362801865437 0.0
2.246793053318422 0.3097947118702842 0.0
3.391580469276819 0.5673489147038103 0.0
3.035026488699165 0.6179797538177514 0.0
2.449819864663089 1.055109427275025 0.0
2.27653308928065 1.054384468582349 0.0
2.794675693196835 1.418106589018447 0.0
2.778866980525137 1.083577784614141 0.0
2.244522876020972 0.1116738824400324 0.0
2.755477123979027 1.888326117559968 0.0
2.323887028942199 0.8604475039748537 0.0
2.204900210979926 1.747483509451062 0.0
2.794853185869193 0.2526222191943996 0.0
2.320767315286541 1.530441598510029 0.0
1.550828143561484 1.606851581022188 0.0
2.796593663741882 1.288013595743853 0.0
3.436143660897262 0.3940652474171653 0.0
2.682379445750112 0.4493639922429763 0.0
3.242313228541417 0.154845696987206 0.0
1.75965289115187 1.844031320058407 0.0
1.3642341383496 1.159631408929946 0.0
1.980047380836635 1.36362624976796 0.0
2.070303834520089 1.451946835577872 0.0
2.55866460451515 1.229901920133861 0.0
4.26844523535139 0.499131154814159 0.0
0.7315547646486098 1.500868845185841 0.0
2.716116351489881 1.570657861970705 0.0
2.283245236086922 0.4299499540566049 0.0
4.50573905238033 0.204273435313806 0.0
0.4942609476196695 1.795726564686194 0.0
3.605070352001925 0.644396355247622 0.0
3.171946621948212 0.9019117497969773 0.0
3.40309695214227 0.1789624633199048 0.0
1.59690304785773 1.821037536680094 0.0
4.776800700354217 0.5074282293075529 0.0
0.2231992996457826 1.492571770692447 0.0
1.293020597407515 1.839015256431498 0.0
3.706979402592485 0.1609847435685022 0.0
1.398281395597716 1.351857389185529 0.0
2.880181082677912 0.1378504756446906 0.0
2.119200639021148 1.861833157788504 0.0
2.408646939494887 0.2452196658480275 0.0
2.591353060505113 1.754780334151973 0.0
1.146570081566377 1.160946826906423 0.0
3.853429918433624 0.8390531730935771 0.0
2.920846657438631 1.149071660619678 0.0
2.101132283911678 1.226382957654413 0.0
2.903672483971366 0.7774662795474147 0.0
2.516386521935266 0.571665255016536 0.0
2.475412447847437 1.444413760085193 0.0
2.903041575637174 0.5510905120278109 0.0
3.666476299189054 0.8553176740217776 0.0
1.558137053653031 1.119389262041809 0.0
3.867595456948903 0.1475874639835382 0.0
1.132404543051097 1.852412536016462 0.0
2.635017655944937 0.9730281566682446 0.0
2.436667490139274 1.901171080200935 0.0
2.563332509860726 0.09882891979906516 0.0
2.091598337090247 1.040423151014485 0.0
0.8316881289508771 1.172977685150089 0.0
4.168311871049123 0.827022314849911 0.0
3.648565743761548 0.3681286963687066 0.0
1.355037313653319 1.636865536133179 0.0
2.58412781071005 1.576586299624529 0.0
2.41587218928995 0.4234137003754711 0.0
2.083716468691946 0.6634832154935376 0.0
1.843942294678346 1.256771801786488 0.0
[...]
POINT_DATA 380

VECTORS Velocity float
0.0000000000000000 0.0000000000000000 0.0
0.0000000000000000 0.0000000000000000 0.0
0.0000000000000000 0.0000000000000000 0.0
0.0000000000000000 0.0000000000000000 0.0
0.0000000000000000 0.0000000000000000 0.0
0.9186862746681560 -0.1330518572798302 0.0
0.0000000000000000 0.0000000000000000 0.0
0.0000000000000000 0.0000000000000000 0.0
0.0000000000000000 0.0000000000000000 0.0
0.0000000000000000 0.0000000000000000 0.0
0.0000000000000000 0.0000000000000000 0.0
0.0000000000000000 0.0000000000000000 0.0
0.0000000000000000 0.0000000000000000 0.0
0.0000000000000000 0.0000000000000000 0.0
0.0000000000000000 0.0000000000000000 0.0
0.0000000000000000 0.0000000000000000 0.0
0.0000000000000000 0.0000000000000000 0.0
0.0000000000000000 0.0000000000000000 0.0
0.0000000000000000 0.0000000000000000 0.0
0.0000000000000000 0.0000000000000000 0.0
0.0000000000000000 0.0000000000000000 0.0
0.0000000000000000 0.0000000000000000 0.0
0.0000000000000000 0.0000000000000000 0.0
0.0000000000000000 0.0000000000000000 0.0
0.0000000000000000 0.0000000000000000 0.0
0.0000000000000000 0.0000000000000000 0.0
0.0000000000000000 0.0000000000000000 0.0
0.0000000000000000 0.0000000000000000 0.0
0.0000000000000000 0.0000000000000000 0.0
0.0000000000000000 0.0000000000000000 0.0
0.0000000000000000 0.0000000000000000 0.0
0.0000000000000000 0.0000000000000000 0.0
0.0000000000000000 0.0000000000000000 0.0
0.0000000000000000 0.0000000000000000 0.0
0.0000000000000000 0.0000000000000000 0.0
0.0000000000000000 0.0000000000000000 0.0
0.0000000000000000 0.0000000000000000 0.0
0.0000000000000000 0.0000000000000000 0.0
0.0000000000000000 0.0000000000000000 0.0
0.0000000000000000 0.0000000000000000 0.0
0.0000000000000000 0.0000000000000000 0.0
0.0000000000000000 0.0000000000000000 0.0
0.0000000000000000 0.0000000000000000 0.0
1.1552022764215539 0.3641338385413528 0.0
0.7957336227060917 0.0632755890317452 0.0
1.1395675307922770 -0.2965904813700653 0.0
0.0000000000000000 0.0000000000000000 0.0
0.0000000000000000 0.0000000000000000 0.0
0.0000000000000000 0.0000000000000000 0.0
0.0000000000000000 0.0000000000000000 0.0
0.0000000000000000 0.0000000000000000 0.0
0.0000000000000000 0.0000000000000000 0.0
0.0000000000000000 0.0000000000000000 0.0
0.0000000000000000 0.0000000000000000 0.0
0.0000000000000000 0.0000000000000000 0.0
0.0000000000000000 0.0000000000000000 0.0
0.0000000000000000 0.0000000000000000 0.0
0.0000000000000000 0.0000000000000000 0.0
0.0000000000000000 0.0000000000000000 0.0
0.0000000000000000 0.0000000000000000 0.0
0.0000000000000000 0.0000000000000000 0.0
0.0000000000000000 0.0000000000000000 0.0
0.0000000000000000 0.0000000000000000 0.0
0.0000000000000000 0.0000000000000000 0.0
0.0000000000000000 0.0000000000000000 0.0
0.0000000000000000 0.0000000000000000 0.0
0.0000000000000000 0.0000000000000000 0.0
0.0000000000000000 0.0000000000000000 0.0
0.0000000000000000 0.0000000000000000 0.0
0.0000000000000000 0.0000000000000000 0.0
0.0000000000000000 0.0000000000000000 0.0
0.0000000000000000 0.0000000000000000 0.0
0.0000000000000000 0.0000000000000000 0.0
0.0000000000000000 0.0000000000000000 0.0
0.0000000000000000 0.0000000000000000 0.0
0.0000000000000000 0.0000000000000000 0.0
0.0000000000000000 0.0000000000000000 0.0
0.0000000000000000 0.0000000000000000 0.0
0.0000000000000000 0.0000000000000000 0.0
1.0000000000000000 0.0000000000000000 0.0
1.0000000000000000 0.0000000000000000 0.0
1.0000000000000000 0.0000000000000000 0.0
0.9046319894222652 -0.8003793027808475 0.0
0.7928585259039824 -0.8182778075603527 0.0
1.5091881311775159 -0.2588204615756715 0.0
1.4517606142810071 -0.2546764156714678 0.0
0.5821030683115938 -1.1818364494436595 0.0
0.2859395962785445 -0.2056643314581512 0.0
0.2484888639943081 -0.1992329613348765 0.0
0.5673713514201706 -1.2086969930160059 0.0
1.5741628408036024 -0.0776669976777851 0.0
1.6108465230854001 -0.1182548426934268 0.0
0.2764882071501311 -0.6986748232911189 0.0
0.2554293118423352 -0.6268021925106044 0.0
1.1501132011612230 -0.9979611352732359 0.0
0.7064344699787827 -0.1955925282810677 0.0
0.6708539714168126 -0.1829964411987260 0.0
1.1507394580091261 -0.9058241490075926 0.0
1.6001145805932706 -0.0190012762582055 0.0
1.5975261560727927 -0.0086206299402826 0.0
1.4941343988152902 -0.3590044742348267 0.0
1.5007503503312862 -0.0640600870654516 0.0
1.4409207127603778 -0.3203651805744692 0.0
0.2530692411679273 -0.8552456659081656 0.0
1.5151328301846863 -0.0689115540898865 0.0
1.5836814916564723 0.0096560527288234 0.0
1.5334987005777445 0.0359298607698698 0.0
1.2729893853484706 -0.4927523730886248 0.0
0.6806170219484075 -1.1512664699674040 0.0
1.1715764357205667 -0.4449892895673536 0.0
0.6732495194703495 -1.1607409072350174 0.0
0.0657484241548116 -0.0689476301300168 0.0
0.0547136917538657 -0.0620626930829545 0.0
1.1892012434541586 -0.0825334286782025 0.0
1.1168219833407480 -0.0913846733486350 0.0
0.1179501237878712 -0.3396972747908025 0.0
0.0860330935507315 -0.2804376498590098 0.0
0.1707288540751230 -0.7707021178215389 0.0
0.4864311945248898 -0.9581904641269782 0.0
0.4636259838794571 -0.5515065308307910 0.0
0.5293246988698072 -0.5485040110068917 0.0
1.3917752925296303 -0.0116557004129445 0.0
1.3069064352859934 -0.0808103099604496 0.0
0.8111997882334655 -0.1269027635127953 0.0
0.8753042560456240 -0.1290137531748865 0.0
0.5597813050383708 -1.0124441468343834 0.0
0.6228086790428061 -1.1204245204439287 0.0
0.3100352409012721 -0.0318609047742727 0.0
0.2906296483506220 -0.0365335844271781 0.0
1.2779222243100863 0.0120366253026136 0.0
1.2785961932519545 0.0085167941408321 0.0
0.4605980585799129 -1.0339297329253321 0.0
1.2569958898840674 0.0001900898871294 0.0
0.8691683349688746 -1.0787604527150914 0.0
0.7804909955889150 -0.4607520499751910 0.0
0.7950899680977183 -0.4998503850622790 0.0
0.0224177201456287 -0.3827352285997391 0.0
1.4978760831549933 -0.5530214842269029 0.0
0.0634315420447162 -0.4102591908302905 0.0
1.3446204107349982 0.0065096768276719 0.0
1.3449128532242043 0.0149061739626930 0.0
1.1091460780415681 -0.7601226016913667 0.0
1.3761863498641516 -0.0383770086730563 0.0
1.3736785952012294 -0.0565387111445559 0.0
0.0559030467257800 -0.1204983763103557 0.0
0.0484391197833372 -0.1054525316303136 0.0
0.7918955169754981 -0.0090687501044742 0.0
0.7762639039759386 -0.0266061942844928 0.0
1.2471299678587020 -0.5793911353129382 0.0
1.2440793486752322 -0.1024901515189200 0.0
1.4409614629593424 -0.5617262529306108 0.0
1.5344112902261293 -0.0925358456923641 0.0
1.2071327264734111 -0.0640904533547576 0.0
0.6499482232172361 -1.2145164826373143 0.0
0.9254665037820488 -0.9430447512942367 0.0
0.7959970608806198 -1.2237580691221688 0.0
1.0798501271282588 -0.0610075871048631 0.0
0.5865238978512372 -0.8734512105042450 0.0
1.0658203262036139 -0.0514399937700099 0.0
1.0675239954263918 -0.0522878150198309 0.0
1.5773724454702256 -0.0700106716424648 0.0
0.1008177527649659 -0.0392026459386254 0.0
0.0906744484625588 -0.0369776545947338 0.0
1.0322799514310748 -0.8988047030372777 0.0
0.0432047336782216 -0.2095257672017838 0.0
0.4854514089921581 -0.7330509182509454 0.0
0.2429131828454005 -0.8048418775644136 0.0
1.5632683978177020 -0.1660860066535635 0.0
1.2289507945525366 -0.2189703747464176 0.0
1.2102133556167440 -0.2003622993238240 0.0
1.1833817863341900 -0.2672860772710080 0.0
0.4249779830266741 -0.2206161865677638 0.0
0.4583445562835270 -0.2141474625150702 0.0
1.2630529444039620 -0.2933400217663098 0.0
1.0451957055920555 -0.0262341662186125 0.0
1.0432601849134961 -0.0270875264188755 0.0
0.9410176688408932 -0.1116860326558992 0.0
1.0110344034987016 -0.1166302313212407 0.0
0.2762007499323667 -0.0510657051552227 0.0
0.2665514082524075 -0.0478812917339834 0.0
0.8378950981555279 -0.0202216492501543 0.0
1.5795116882903368 -0.1549903285593894 0.0
0.0183590115147224 -0.0175924817164741 0.0
0.0142695766951566 -0.0156859579381280 0.0
1.5372253306574626 -0.0975934572479268 0.0
1.5696384081498407 -0.1274040436698402 0.0
0.1377044367698661 -0.5108573583572386 0.0
1.0960192335952064 0.2305923184575051 0.0
1.0937396949903400 0.2310337571579586 0.0
0.2832460792238282 -0.5146201145621910 0.0
0.2412763076561371 -0.4535689232729703 0.0
0.6618234736463634 -1.0149379199266120 0.0
0.9301576787028878 -0.0549628360660750 0.0
0.8818801674626348 -0.1807654676507479 0.0
0.0381109150020748 -0.1962414879627006 0.0
0.4692230781544067 -1.1146571232187279 0.0
0.2616622768402178 -0.8456004340849970 0.0
0.7888173264030180 -0.1262706859481464 0.0
1.1375671917489600 -0.7946442164636895 0.0
1.5608700376408433 -0.0516994131522954 0.0
0.5673420718682257 -1.1238784529983907 0.0
0.0277406538835388 -0.3327236266949528 0.0
1.1061224578978961 -0.6633766107450301 0.0
0.0661926217551054 -0.3092988026732924 0.0
0.8035605406295407 -1.0295228031245012 0.0
0.4086880843165122 -0.0210805644094751 0.0
0.4314140759944559 -0.0188578546759839 0.0
0.0438810015652164 -0.1024106455312390 0.0
0.0239589574157000 -0.0326828119448584 0.0
0.0191673115943895 -0.0282518188824211 0.0
1.2783309609571558 -0.7651457386412264 0.0
0.9690931744930043 -0.6343213858619147 0.0
0.5875848181529469 -1.1680409222265757 0.0
0.0307366040520730 -0.1255797023303589 0.0
0.8660322662192288 0.1645711905737811 0.0
0.8387945662486146 0.1312629943176774 0.0
0.1552352851191089 -0.1734464440808370 0.0
0.1336679921423199 -0.1579720976740316 0.0
1.6420560526959760 -0.1213721720752149 0.0
1.5996299650045060 -0.3229327250194346 0.0
0.6637742712157491 -1.2107299401157536 0.0
0.7070335023674199 -1.1396097467149142 0.0
0.1430744071828332 -0.4425427614930194 0.0
0.4195137353597939 -1.0832403577833232 0.0
0.0351588139625396 -0.0263030462339179 0.0
0.0407496032240690 -0.0288664581588934 0.0
0.4519995531725631 -1.0625393992306753 0.0
0.6517801049324179 -0.1352090025286717 0.0
0.6141910919155020 -0.1208394372277819 0.0
0.9902385311749988 -0.4284842585460522 0.0
1.3580548405280806 -0.0313369044275483 0.0
0.1584114948614486 -0.6169344238061355 0.0
1.3034428480615181 -0.0645396912779811 0.0
0.9418807835447620 -0.4024119112180743 0.0
0.5031362154954082 -0.0331062654419741 0.0
0.5278422941578129 -0.0360806011326060 0.0
0.8941353068645437 -0.0197459998866907 0.0
1.5373238612573563 -0.3485682973127439 0.0
1.4651465685764544 -0.4083863006347248 0.0
0.5855682725099021 -1.0405440109025879 0.0
1.6000797103613909 -0.0534880996277100 0.0
1.5899107541553719 -0.0449355591662094 0.0
0.2221140290393672 -0.3091372148504964 0.0
0.1905350010884235 -0.2852330561170784 0.0
0.7798553934246081 -0.1433718544542566 0.0
0.8007920961971007 -0.1598563900859780 0.0
1.5597010449687667 -0.0764672397664393 0.0
0.5616073317896606 -0.0575081426901607 0.0
0.6326080083872487 -0.0790287859221253 0.0
0.6583803539030180 -0.0808032972882530 0.0
1.2611478509809018 0.0574377358124563 0.0
1.2108929400510577 0.0466357791193854 0.0
0.6387764927481221 0.0333106728266350 0.0
0.6392528033563335 0.0305635679472050 0.0
1.4567736121874133 -0.0525465311110719 0.0
0.3133944987691322 -0.0550387221324796 0.0
0.3319884313431920 -0.0592176028385093 0.0
0.2373536873986025 -0.1158229430009980 0.0
0.2589583403140509 -0.1181112879373539 0.0
0.7323891494248665 0.0588466342987767 0.0
0.7339229143116026 0.1058888157555480 0.0
0.0391229027723568 -0.3658557057777008 0.0
1.3145496402025816 -0.7109336376793991 0.0
1.3442577323768261 -0.7411233048868939 0.0
0.6737935944117939 -0.6569416732275600 0.0
0.7695271065210789 -0.5911399483392575 0.0
1.4234286962695213 -0.4220442042537338 0.0
0.6072577598614872 0.0250912611998406 0.0
0.6299792992336196 -0.0167753751109098 0.0
0.5367166975946888 -0.1091204894508654 0.0
0.5392373181288239 -0.1067587504488739 0.0
0.6776503792525685 -1.2392942193995675 0.0
0.0975564052913383 -0.0247702284788027 0.0
0.0920737901669850 -0.0256551501015250 0.0
0.5737825395211599 -0.7343165696686587 0.0
0.6719487046752542 -0.0977938401686651 0.0
0.6705969282487907 -0.1056729157139897 0.0
1.3082024603989755 -0.1397225975318167 0.0
1.3141509421484150 -0.1134716773452193 0.0
0.4686149369543414 -0.3259855212520117 0.0
0.4075262787135241 -0.3248311964060520 0.0
-0.0007997414106627 -0.1666374090208501 0.0
1.3698899725557954 -0.1469751272376878 0.0
0.6095225699145808 -0.8046661338891662 0.0
0.1180860172407359 -0.4362384120584007 0.0
0.4365040855577373 -0.7298723560880460 0.0
0.9807247284591573 -0.9702620665753274 0.0
0.8967346620031111 -1.1516291139074986 0.0
1.4968828930033187 -0.0650782791747649 0.0
1.4924687876194362 -0.0963152563810844 0.0
0.6476046436121354 -1.2237520360042322 0.0
1.0431056250831718 -0.2714264786318699 0.0
0.9924859038842272 -0.2203384991113608 0.0
0.5132602233721948 -0.1638486501805475 0.0
0.4944967358097469 -0.1694735522704119 0.0
1.5593872927337418 -0.1080171639212408 0.0
0.9842094862442000 -1.0905411602834403 0.0
0.4146117617584059 -1.0704653765226178 0.0
1.2123686064460555 -0.1681086215150034 0.0
1.5662733703742575 -0.0917385436108742 0.0
1.5757340623188822 -0.0967847344503023 0.0
1.2846296650248048 -0.1698079547076359 0.0
0.1002894979216032 -0.0107261915611411 0.0
0.1086104459043410 -0.0089948746101428 0.0
0.4209693708536055 0.0679969734330468 0.0
1.3622894848423868 -0.1373603540131721 0.0
1.3218275014633385 0.0342160364797738 0.0
0.4379967298828282 -0.9017182949018003 0.0
0.1160636951219222 -0.2358179118055544 0.0
0.0939509371612385 -0.2018527543358148 0.0
0.1583289257131860 -0.0856401253449210 0.0
0.1400255818482367 -0.0804554495332166 0.0
0.3737775661347831 -0.6556232868472661 0.0
0.0052183366960281 -0.1222002405199316 0.0
0.9059812376209662 -0.8617186568370456 0.0
0.5211672767866306 0.0366172991328971 0.0
0.5041842892600094 0.0190466697925602 0.0
1.4810925373806394 -0.0480922721848984 0.0
1.4811572435237370 -0.0597427608919987 0.0
0.9438973136398602 -1.0795271200127909 0.0
1.5999536771979819 -0.1686481287395281 0.0
0.4293394190697197 -0.0484141789137599 0.0
0.0220148466227865 -0.0425286344137333 0.0
0.0157479937327311 -0.0364909105332835 0.0
0.3727580793134079 -0.8166558237491233 0.0
0.0215365119521543 -0.1135998410577668 0.0
0.7221899053082974 -0.9269970654319034 0.0
1.4493430583986195 -0.1395271388545247 0.0
0.6455474953793900 -0.4173545001608587 0.0
0.6020516028019423 -0.4354669478760916 0.0
0.6291387023622451 -1.1939861822848377 0.0
0.6699478464822582 0.0781817161897892 0.0
0.6671337518454395 0.0808398984193190 0.0
0.7856804589120759 -1.1480788017853705 0.0
0.1272040851305107 -0.6165308370896512 0.0
0.1086822497401944 -0.4832659994988293 0.0
0.0076375260169469 -0.1181332442445627 0.0
0.8421444645361990 0.0649247279747198 0.0
0.8048005216312297 0.0968779236514524 0.0
0.8330032794230693 -0.0507633924227783 0.0
0.8045402242393934 -0.0670578520425967 0.0
0.3153755825485151 -0.8887255854751607 0.0
0.6460293173009420 -0.1512911686755716 0.0
0.7720349153595073 -1.0088443830420408 0.0
1.3610539916248370 -0.7777091197965110 0.0
0.5340329500533781 0.0844947130786459 0.0
1.4804500314892968 -0.0119227494594209 0.0
1.4841974076210098 -0.0079770045956270 0.0
1.0397806526839102 -1.0114637726534068 0.0
0.7330569572960218 -1.1683442152099106 0.0
1.3268537503342748 -0.1574767659424295 0.0
0.7082053576867916 -1.1989303994383640 0.0
0.0790642231076118 -0.4069092569089943 0.0
1.1820439545573651 -0.0564887979415399 0.0
0.3744224649306092 -0.9398052245943495 0.0
1.6523827373741984 -0.0917012094325498 0.0
0.4112716603759066 -0.0051756133765131 0.0
1.5812067889434562 -0.0861250672408226 0.0
1.5503552775477307 -0.0992960081909597 0.0
-0.0036191217527524 -0.0007689954099478 0.0
-0.0025917311799108 -0.0007383249188161 0.0
0.5346874893223326 0.0426403781815510 0.0
0.3440493537623378 -0.0452633481864804 0.0
-0.0014669667970730 -0.0060161979197880 0.0
-0.0004414790003966 -0.0066190410230205 0.0
0.5563076395382348 -0.0345520651777460 0.0
0.6333725269686779 -0.8842914722422087 0.0
0.5591202334702294 -0.0341100807902639 0.0
0.5532319264872513 -0.0270596200940115 0.0
0.6914452375976845 -0.3116728921871227 0.0
0.7394216617487351 -0.3073800587574297 0.0
0.6343676603444400 -0.7668246013710539 0.0
0.3087541547905652 -0.3937155916430218 0.0
0.3545422392195967 -0.4310960950335483 0.0
0.0004301563370517 -0.0022628382425681 0.0
-0.0015668078370608 -0.0021770122989211 0.0
1.2922912611118222 -0.4709092654207107 0.0
1.3446310216439858 -0.6511271013785654 0.0
0.9357863848140638 -0.6154857813101330 0.0
0.7526290331853028 -0.4365409241519063 0.0
