# vtk DataFile Version 3.0
LucasCarvalhoTCC Results
ASCII

DATASET POLYDATA
FIELD FieldData 1
TIME 1 1 double
3.0

POINTS 380 float
0.0 2.0 0.0
2.0 2.0 0.0
3.0 2.0 0.0
3.0 1.0 0.0
5.0 1.0 0.0
5.0 0.0 0.0
3.0 0.0 0.0
2.0 0.0 0.0
2.0 1.0 0.0
0.0 1.0 0.0
0.2643114543905713 2.0 0.0
0.5169795502969444 2.0 0.0
0.7585171880292413 2.0 0.0
0.9894145836600268 2.0 0.0
1.210140497826619 2.0 0.0
1.421143008568911 2.0 0.0
1.622850459538253 2.0 0.0
1.815672303789548 2.0 0.0
2.188552664328277 2.0 0.0
2.359329284173903 2.0 0.0
2.514005696104645 2.0 0.0
2.654099788331341 2.0 0.0
2.780986322989182 2.0 0.0
2.895910470953052 2.0 0.0
3.0 1.9 0.0
3.0 1.8 0.0
3.0 1.7 0.0
3.0 1.6 0.0
3.0 1.5 0.0
3.0 1.4 0.0
3.0 1.3 0.0
3.0 1.2 0.0
3.0 1.1 0.0
3.105031513416626 1.0 0.0
3.221094637894669 1.0 0.0
3.349348047908936 1.0 0.0
3.491072094154001 1.0 0.0
3.647681638607018 1.0 0.0
3.820740106959136 1.0 0.0
4.011975186625977 1.0 0.0
4.223295996958671 1.0 0.0
4.456812096249916 1.0 0.0
4.714854728122151 1.0 0.0
5.0 0.7500000000000003 0.0
5.0 0.5000000000000012 0.0
5.0 0.2500000000000011 0.0
4.735688545609428 0.0 0.0
4.483020449703056 0.0 0.0
4.241482811970759 0.0 0.0
4.010585416339973 0.0 0.0
3.789859502173381 0.0 0.0
3.578856991431089 0.0 0.0
3.377149540461747 0.0 0.0
3.184327696210452 0.0 0.0
2.811447335671723 0.0 0.0
2.640670715826097 0.0 0.0
2.485994303895355 0.0 0.0
2.345900211668659 0.0 0.0
2.219013677010818 0.0 0.0
2.104089529046948 0.0 0.0
2.0 0.1 0.0
2.0 0.2 0.0
2.0 0.3 0.0
2.0 0.4 0.0
2.0 0.5 0.0
2.0 0.6 0.0
2.0 0.7 0.0
2.0 0.8 0.0
2.0 0.9 0.0
1.894968486583374 1.0 0.0
1.77890536210533 1.0 0.0
1.650651952091063 1.0 0.0
1.508927905845999 1.0 0.0
1.352318361392982 1.0 0.0
1.179259893040864 1.0 0.0
0.9880248133740233 1.0 0.0
0.7767040030413299 1.0 0.0
0.5431879037500846 1.0 0.0
0.2851452718778493 1.0 0.0
0.0 1.25 0.0
0.0 1.499999999999999 0.0
0.0 1.749999999999999 0.0
2.426045913985508 1.348290599604586 0.0
2.562221387987337 0.6558377602558874 0.0
1.966703786708101 1.492474555319359 0.0
3.033486484223225 0.4973568340887861 0.0
2.371610747520728 0.97814425147097 0.0
2.648098402859118 1.648016516253387 0.0
2.351901597140882 0.3519834837466129 0.0
2.694321138879857 1.061432730999581 0.0
1.441644339445862 1.496646809257773 0.0
3.554831642064292 0.501744031268764 0.0
2.720742750697982 1.350625068836981 0.0
2.282037541072919 0.639419348257894 0.0
2.813390610951134 0.7911761792959446 0.0
2.310700631729327 1.679155452525512 0.0
2.688751528716965 0.3206838402855661 0.0
2.211165393176843 1.213708510063781 0.0
0.9449004170027906 1.496357611130017 0.0
4.05509958299721 0.5036423888699835 0.0
3.025501657200047 0.7528388163714679 0.0
1.714778657098197 1.300039655550584 0.0
1.958264922640818 1.245975101752485 0.0
2.206386339371814 0.8500000000000001 0.0
3.336706349465057 0.704398544338507 0.0
4.529565928894533 0.555233644424822 0.0
0.4704340711054673 1.444766355575178 0.0
2.186983355180128 1.461437746541105 0.0
2.553715879020142 0.8859594914241276 0.0
2.782212276375736 0.5474565156445963 0.0
2.500206140967324 1.148517546040804 0.0
2.803373162317882 1.783880361314082 0.0
2.196626837682118 0.2161196386859174 0.0
1.735623536927746 1.664129737658362 0.0
3.268802735993943 0.3358439745752063 0.0
2.799454045372581 1.51553500056848 0.0
2.18762015375897 0.4992029885790829 0.0
2.813478812948685 1.18678600527921 0.0
2.400994471757771 0.7612313552289275 0.0
2.405444563947088 0.5311203927463914 0.0
2.583195945356847 1.473216966241769 0.0
3.734210872783077 0.7260959952797862 0.0
1.256500988572085 1.265010492624376 0.0
2.938353069321001 0.2909212553641365 0.0
2.061245308362322 1.709221243241415 0.0
2.182240881432738 1.001025052084926 0.0
2.830214026212788 0.9796244234047695 0.0
2.49023894829247 1.787687811117195 0.0
2.50976105170753 0.2123121888828049 0.0
1.194806886820808 1.686899295332255 0.0
3.805193113179192 0.3131007046677451 0.0
2.655039231860651 1.208917360245127 0.0
1.493530449555064 1.231198576616718 0.0
2.345622594939228 1.152685186835846 0.0
2.41380980106708 1.521513100394759 0.0
2.58979513084283 0.4863225267637531 0.0
2.135472648094309 0.7246460081196311 0.0
2.912574128751924 0.660128736186259 0.0
2.866043013605144 1.353074765380587 0.0
0.6928324624395237 1.69170809873467 0.0
4.307167537560476 0.3082919012653306 0.0
2.071506740582853 1.128535871978767 0.0
0.6831902494895832 1.302725441792086 0.0
4.316809750510417 0.6972745582079137 0.0
2.85534466702333 1.667491236848871 0.0
2.141886244104996 0.336139391754002 0.0
1.447743165823209 1.773242752731258 0.0
3.554386585610856 0.224002072703283 0.0
2.96485662756902 0.8593908564801968 0.0
3.240425509636175 0.8099760775594669 0.0
2.088410584923666 1.339747073830609 0.0
3.277530767974837 0.4939020807639749 0.0
3.534313505233912 0.7935179117986669 0.0
2.546683861402325 1.011736398479819 0.0
2.664793655038503 0.758149595673951 0.0
2.7009922066801 0.9086021996324817 0.0
1.844652141496971 1.153158997353228 0.0
2.575910747861113 1.316876286520138 0.0
3.994328863599566 0.7454319923658932 0.0
1.005671136400434 1.254568007634107 0.0
1.722192091537185 1.482888323667831 0.0
2.644751416415203 1.850904811198953 0.0
2.355248583584797 0.1490951888010467 0.0
2.31560379269905 1.25706851182614 0.0
2.129697972466254 0.5864366202645266 0.0
2.417220568140766 0.6397160301847872 0.0
2.867945749403976 1.069821281672812 0.0
3.182303046124178 0.6739667261124369 0.0
4.702774994215813 0.2953677284017739 0.0
0.2972250057841874 1.704632271598226 0.0
2.90043748182062 0.4316738443013928 0.0
2.486081387366873 0.3514585853722887 0.0
2.513918612633127 1.648541414627711 0.0
2.086778258621772 1.563111332603502 0.0
4.025359850459486 0.2638518716814435 0.0
0.9746401495405139 1.736148128318556 0.0
3.116389458098145 0.2933651166122753 0.0
1.885410353788165 1.707062521230272 0.0
2.327134732627959 1.833634230002939 0.0
2.672865267372041 0.1663657699970617 0.0
1.675899428547673 1.15999616666306 0.0
1.858973331615206 1.373382723203102 0.0
2.860266039499884 1.862282581689995 0.0
2.139733960500116 0.1377174183100045 0.0
1.257473476073173 1.479081588926576 0.0
3.731624273377778 0.5208146070195914 0.0
2.115038607594509 0.9238947313642476 0.0
0.2734661728051435 1.270630989444945 0.0
4.726533827194856 0.7293690105550548 0.0
2.699965708650878 1.465007479364728 0.0
2.298365077320068 0.5341069340550768 0.0
2.510583000486659 0.7602856732279889 0.0
3.370667741214912 0.8392397884376295 0.0
3.067541604254986 0.8806352314757129 0.0
2.90073732483139 1.443475210354718 0.0
2.264071206758208 0.9501943312745662 0.0
2.278663096491763 0.7489636980394857 0.0
1.952511813454414 1.110576661474517 0.0
2.744352083917141 0.687787375233183 0.0
1.566252941493004 1.383661493752942 0.0
2.437660520624072 0.8703573012735125 0.0
2.904826075218911 1.261819176983655 0.0
2.305967018083784 1.391390767447104 0.0
2.105729326736999 0.8145314366030645 0.0
2.428967188976762 1.236966721617647 0.0
3.060475488407204 0.1442825789852263 0.0
1.934979199332455 1.852811714602595 0.0
2.095475260770118 0.4348597444661615 0.0
2.914777085426361 1.759093454264707 0.0
2.084827330449114 0.2414252069642749 0.0
2.207128288422204 1.315477221019454 0.0
2.658751426439581 0.5773232450959589 0.0
2.612380011409894 1.114144853433198 0.0
2.897371573983894 1.569769587751228 0.0
0.5001010519014215 1.226918930408543 0.0
4.499898948098578 0.7730810695914568 0.0
2.753086810589338 1.690362801865437 0.0
2.246793053318422 0.3097947118702842 0.0
3.391580469276819 0.5673489147038103 0.0
3.035026488699165 0.6179797538177514 0.0
2.449819864663089 1.055109427275025 0.0
2.27653308928065 1.054384468582349 0.0
2.794675693196835 1.418106589018447 0.0
2.778866980525137 1.083577784614141 0.0
2.244522876020972 0.1116738824400324 0.0
2.755477123979027 1.888326117559968 0.0
2.323887028942199 0.8604475039748537 0.0
2.204900210979926 1.747483509451062 0.0
2.794853185869193 0.2526222191943996 0.0
2.320767315286541 1.530441598510029 0.0
1.550828143561484 1.606851581022188 0.0
2.796593663741882 1.288013595743853 0.0
3.436143660897262 0.3940652474171653 0.0
2.682379445750112 0.4493639922429763 0.0
3.242313228541417 0.154845696987206 0.0
1.75965289115187 1.844031320058407 0.0
1.3642341383496 1.159631408929946 0.0
1.980047380836635 1.36362624976796 0.0
2.070303834520089 1.451946835577872 0.0
2.55866460451515 1.229901920133861 0.0
4.26844523535139 0.499131154814159 0.0
0.7315547646486098 1.500868845185841 0.0
2.716116351489881 1.570657861970705 0.0
2.283245236086922 0.4299499540566049 0.0
4.50573905238033 0.204273435313806 0.0
0.4942609476196695 1.795726564686194 0.0
3.605070352001925 0.644396355247622 0.0
3.171946621948212 0.9019117497969773 0.0
3.40309695214227 0.1789624633199048 0.0
1.59690304785773 1.821037536680094 0.0
4.776800700354217 0.5074282293075529 0.0
0.2231992996457826 1.492571770692447 0.0
1.293020597407515 1.839015256431498 0.0
3.706979402592485 0.1609847435685022 0.0
1.398281395597716 1.351857389185529 0.0
2.880181082677912 0.1378504756446906 0.0
2.119200639021148 1.861833157788504 0.0
2.408646939494887 0.2452196658480275 0.0
2.591353060505113 1.754780334151973 0.0
1.146570081566377 1.160946826906423 0.0
3.853429918433624 0.8390531730935771 0.0
2.920846657438631 1.149071660619678 0.0
2.101132283911678 1.226382957654413 0.0
2.903672483971366 0.7774662795474147 0.0
2.516386521935266 0.571665255016536 0.0
2.475412447847437 1.444413760085193 0.0
2.903041575637174 0.5510905120278109 0.0
3.666476299189054 0.8553176740217776 0.0
1.558137053653031 1.119389262041809 0.0
3.867595456948903 0.1475874639835382 0.0
1.132404543051097 1.852412536016462 0.0
2.635017655944937 0.9730281566682446 0.0
2.436667490139274 1.901171080200935 0.0
2.563332509860726 0.09882891979906516 0.0
2.091598337090247 1.040423151014485 0.0
0.8316881289508771 1.172977685150089 0.0
4.168311871049123 0.827022314849911 0.0
3.648565743761548 0.3681286963687066 0.0
1.355037313653319 1.636865536133179 0.0
2.58412781071005 1.576586299624529 0.0
2.41587218928995 0.4234137003754711 0.0
2.083716468691946 0.6634832154935376 0.0
1.843942294678346 1.256771801786488 0.0
[...]
POINT_DATA 380

VECTORS Velocity float
0.0000000000000000 0.0000000000000000 0.0
0.0000000000000000 0.0000000000000000 0.0
0.0000000000000000 0.0000000000000000 0.0
0.0000000000000000 0.0000000000000000 0.0
0.0000000000000000 0.0000000000000000 0.0
0.9186867886553379 -0.1330454385222860 0.0
0.0000000000000000 0.0000000000000000 0.0
0.0000000000000000 0.0000000000000000 0.0
0.0000000000000000 0.0000000000000000 0.0
0.0000000000000000 0.0000000000000000 0.0
0.0000000000000000 0.0000000000000000 0.0
0.0000000000000000 0.0000000000000000 0.0
0.0000000000000000 0.0000000000000000 0.0
0.0000000000000000 0.0000000000000000 0.0
0.0000000000000000 0.0000000000000000 0.0
0.0000000000000000 0.0000000000000000 0.0
0.0000000000000000 0.0000000000000000 0.0
0.0000000000000000 0.0000000000000000 0.0
0.0000000000000000 0.0000000000000000 0.0
0.0000000000000000 0.0000000000000000 0.0
0.0000000000000000 0.0000000000000000 0.0
0.0000000000000000 0.0000000000000000 0.0
0.0000000000000000 0.0000000000000000 0.0
0.0000000000000000 0.0000000000000000 0.0
0.0000000000000000 0.0000000000000000 0.0
0.0000000000000000 0.0000000000000000 0.0
0.0000000000000000 0.0000000000000000 0.0
0.0000000000000000 0.0000000000000000 0.0
0.0000000000000000 0.0000000000000000 0.0
0.0000000000000000 0.0000000000000000 0.0
0.0000000000000000 0.0000000000000000 0.0
0.0000000000000000 0.0000000000000000 0.0
0.0000000000000000 0.0000000000000000 0.0
0.0000000000000000 0.0000000000000000 0.0
0.0000000000000000 0.0000000000000000 0.0
0.0000000000000000 0.0000000000000000 0.0
0.0000000000000000 0.0000000000000000 0.0
0.0000000000000000 0.0000000000000000 0.0
0.0000000000000000 0.0000000000000000 0.0
0.0000000000000000 0.0000000000000000 0.0
0.0000000000000000 0.0000000000000000 0.0
0.0000000000000000 0.0000000000000000 0.0
0.0000000000000000 0.0000000000000000 0.0
1.1552240788898103 0.3640454551344284 0.0
0.7957345604451562 0.0631164817342889 0.0
1.1395491599228131 -0.2966817888258637 0.0
0.0000000000000000 0.0000000000000000 0.0
0.0000000000000000 0.0000000000000000 0.0
0.0000000000000000 0.0000000000000000 0.0
0.0000000000000000 0.0000000000000000 0.0
0.0000000000000000 0.0000000000000000 0.0
0.0000000000000000 0.0000000000000000 0.0
0.0000000000000000 0.0000000000000000 0.0
0.0000000000000000 0.0000000000000000 0.0
0.0000000000000000 0.0000000000000000 0.0
0.0000000000000000 0.0000000000000000 0.0
0.0000000000000000 0.0000000000000000 0.0
0.0000000000000000 0.0000000000000000 0.0
0.0000000000000000 0.0000000000000000 0.0
0.0000000000000000 0.0000000000000000 0.0
0.0000000000000000 0.0000000000000000 0.0
0.0000000000000000 0.0000000000000000 0.0
0.0000000000000000 0.0000000000000000 0.0
0.0000000000000000 0.0000000000000000 0.0
0.0000000000000000 0.0000000000000000 0.0
0.0000000000000000 0.0000000000000000 0.0
0.0000000000000000 0.0000000000000000 0.0
0.0000000000000000 0.0000000000000000 0.0
0.0000000000000000 0.0000000000000000 0.0
0.0000000000000000 0.0000000000000000 0.0
0.0000000000000000 0.0000000000000000 0.0
0.0000000000000000 0.0000000000000000 0.0
0.0000000000000000 0.0000000000000000 0.0
0.0000000000000000 0.0000000000000000 0.0
0.0000000000000000 0.0000000000000000 0.0
0.0000000000000000 0.0000000000000000 0.0
0.0000000000000000 0.0000000000000000 0.0
0.0000000000000000 0.0000000000000000 0.0
0.0000000000000000 0.0000000000000000 0.0
1.0000000000000000 0.0000000000000000 0.0
1.0000000000000000 0.0000000000000000 0.0
1.0000000000000000 0.0000000000000000 0.0
0.8938619697753558 -0.7849654358235029 0.0
0.7848663976280309 -0.8004691501379753 0.0
1.5034591460534787 -0.2594238860350501 0.0
1.4457707142287313 -0.2558818366378426 0.0
0.5792373402839593 -1.1724158832414093 0.0
0.2964095744363055 -0.2048534483108896 0.0
0.2597674492647867 -0.2003653168309791 0.0
0.5640547780925836 -1.2021015896847838 0.0
1.5737827937129627 -0.0783990376753087 0.0
1.6102575982413061 -0.1173520809014149 0.0
0.2773224619571942 -0.7006994560809389 0.0
0.2565257488098061 -0.6347628347124717 0.0
1.1435903875270126 -1.0007146537819658 0.0
0.7087060761055317 -0.1917293345063117 0.0
0.6759415770028941 -0.1798942039766841 0.0
1.1459753906109433 -0.9076525242485401 0.0
1.6000919740323272 -0.0186230635202098 0.0
1.5975183536072659 -0.0082622765450769 0.0
1.4939194410507080 -0.3639772582998517 0.0
1.5007927864210047 -0.0674936290059541 0.0
1.4435945414946343 -0.3256060178106535 0.0
0.2508963031372046 -0.8707038783492785 0.0
1.5136372350880081 -0.0702973966470209 0.0
1.5837194942534791 0.0096258691666032 0.0
1.5335111285570249 0.0358892166396387 0.0
1.2632130474658569 -0.4889936268127185 0.0
0.6736782172023250 -1.1274184162537835 0.0
1.1623548686080933 -0.4400326840130065 0.0
0.6670414644383383 -1.1363289126475697 0.0
0.0733153082934262 -0.0695374737070429 0.0
0.0612194051386308 -0.0639678918564715 0.0
1.1882670244415703 -0.0827010573767226 0.0
1.1187147215731070 -0.0903386005501548 0.0
0.1230302414603909 -0.3480244762677177 0.0
0.0904498022541375 -0.2905587939393773 0.0
0.1685959345357012 -0.7841403812661827 0.0
0.4829400064548768 -0.9493366754102253 0.0
0.4670998186614598 -0.5468405748595251 0.0
0.5299938246105564 -0.5397567988328902 0.0
1.3910844861948735 -0.0113096681524348 0.0
1.3064765600366921 -0.0808097804640796 0.0
0.8141239114064157 -0.1259812985430169 0.0
0.8750928446532297 -0.1275524779415949 0.0
0.5625936276504546 -1.0285309873876864 0.0
0.6226091785436428 -1.1352096838604926 0.0
0.3172748140964509 -0.0306432098440985 0.0
0.2991055697168933 -0.0353991196761807 0.0
1.2783388153769242 0.0122698455655340 0.0
1.2790573017774911 0.0090569133413014 0.0
0.4576163302431928 -1.0221081031814008 0.0
1.2570444617556922 -0.0008294101198675 0.0
0.8626459826396627 -1.0688396924304309 0.0
0.7773761882440057 -0.4507314043727648 0.0
0.7935859662234787 -0.4892058066927890 0.0
0.0180455380499274 -0.3967306772947948 0.0
1.4906155492353246 -0.5568820505873502 0.0
0.0625595421030398 -0.4225063084893766 0.0
1.3445720665499350 0.0065425925315050 0.0
1.3447923357577256 0.0149445830098841 0.0
1.1174853273410135 -0.7722950756086353 0.0
1.3762304938116319 -0.0383637433261596 0.0
1.3738023272990592 -0.0565008724997803 0.0
0.0625557785284114 -0.1236335812579345 0.0
0.0540753573578572 -0.1100757724874454 0.0
0.7922193952432246 -0.0092102693871809 0.0
0.7774480315814339 -0.0260871015370925 0.0
1.2527508379702763 -0.5882148750821149 0.0
1.2442457725636582 -0.1040698485606457 0.0
1.4342771881519540 -0.5643837338019126 0.0
1.5328793867045258 -0.0920473394168408 0.0
1.2060879507488738 -0.0638761029681563 0.0
0.6438804597831934 -1.1894087313803339 0.0
0.9147367983782243 -0.9283387223738622 0.0
0.7907020222473933 -1.2146145082537967 0.0
1.0863967921512621 -0.0634360405849471 0.0
0.5811488301822432 -0.8567559013873893 0.0
1.0657477869008540 -0.0512449435576790 0.0
1.0673856239973198 -0.0520446570491833 0.0
1.5753755239330882 -0.0719900073502817 0.0
0.1057721873399639 -0.0395933489338565 0.0
0.0958407820614502 -0.0377112197721345 0.0
1.0223788105758866 -0.8902472705063005 0.0
0.0438297920992003 -0.2189459857524054 0.0
0.4849207775690921 -0.7246278047734711 0.0
0.2407164978252743 -0.8219611384235028 0.0
1.5606118616637472 -0.1692191046915039 0.0
1.2288598393766454 -0.2190160904353992 0.0
1.2101926302723092 -0.2003893504180814 0.0
1.1794146682232451 -0.2668533156734118 0.0
0.4346082733512281 -0.2182178516512330 0.0
0.4660885949945529 -0.2106942306660887 0.0
1.2574109317014210 -0.2921202583034016 0.0
1.0452792349967737 -0.0259666679994455 0.0
1.0434141823056780 -0.0268263871588066 0.0
0.9437229215374050 -0.1108349610611505 0.0
1.0102874306590759 -0.1157535605544242 0.0
0.2794878397207595 -0.0503079481601554 0.0
0.2708874957993613 -0.0474186033587426 0.0
0.8398815391000116 -0.0214579311715458 0.0
1.5763529625361461 -0.1579356954831722 0.0
0.0237520352040041 -0.0168173664773566 0.0
0.0183354034910362 -0.0156151443419164 0.0
1.5371392601626075 -0.0975380744051782 0.0
1.5694186525159624 -0.1264963862927330 0.0
0.1361975405080710 -0.5239925199831514 0.0
1.0960392504385030 0.2305671728932140 0.0
1.0938335664994083 0.2309806267530268 0.0
0.2872740912690899 -0.5156974829580585 0.0
0.2466186576506211 -0.4596275588650257 0.0
0.6551772564016055 -0.9944420600330821 0.0
0.9294660202016659 -0.0554678715905094 0.0
0.8853123727583357 -0.1836675866870943 0.0
0.0391419838477995 -0.2037499271606851 0.0
0.4690765442801842 -1.1221806694823584 0.0
0.2593455240709071 -0.8526569252466397 0.0
0.7960182267651129 -0.1281899461378998 0.0
1.1254829815161174 -0.7873571701543804 0.0
1.5602488141234270 -0.0535554330312196 0.0
0.5628778630674665 -1.1069821556984500 0.0
0.0252586656154294 -0.3428928956212112 0.0
1.0943250220814420 -0.6545683708431090 0.0
0.0637590150309661 -0.3197058451176073 0.0
0.7948764941437021 -1.0105166933782594 0.0
0.4113033987063291 -0.0208719608644447 0.0
0.4320590562255039 -0.0185411531576566 0.0
0.0479475569182016 -0.1079635808944630 0.0
0.0296307032793452 -0.0330018519100295 0.0
0.0235228962964683 -0.0292250483338983 0.0
1.2692461945606979 -0.7641095773295692 0.0
0.9603644355432851 -0.6222663100777706 0.0
0.5835512233531083 -1.1493796499977380 0.0
0.0341181333241696 -0.1304536381325760 0.0
0.8660732073963568 0.1645608730758197 0.0
0.8389118520558089 0.1312678564477650 0.0
0.1649565341660828 -0.1754592507147065 0.0
0.1429791934135912 -0.1622380542187794 0.0
1.6404476225379727 -0.1208426863499925 0.0
1.5933563162032571 -0.3261018374827092 0.0
0.6585765975952741 -1.1886646116921651 0.0
0.7063777832268598 -1.1422305691951888 0.0
0.1453653954490296 -0.4520779093122209 0.0
0.4181280228521727 -1.0927927366472117 0.0
0.0387362930368277 -0.0272153889481818 0.0
0.0447044898031573 -0.0293695549862229 0.0
0.4498885472785609 -1.0633027603302370 0.0
0.6543193181768828 -0.1335110144488832 0.0
0.6194618368064275 -0.1199743998770409 0.0
0.9841998442346058 -0.4208993119567879 0.0
1.3577080757733286 -0.0321682508843325 0.0
0.1577897586394720 -0.6280666679867216 0.0
1.3043189897884020 -0.0634943340509884 0.0
0.9391527679275837 -0.3953363280878385 0.0
0.5051263174444489 -0.0328151280508142 0.0
0.5278886911135122 -0.0359209296399103 0.0
0.8938338646403882 -0.0200687522450526 0.0
1.5327812740737190 -0.3518536496873050 0.0
1.4573870584978295 -0.4084054931316228 0.0
0.5807181816627149 -1.0195736927580625 0.0
1.6000729973624790 -0.0533741659053372 0.0
1.5899069052779391 -0.0448370905561919 0.0
0.2308156980591765 -0.3116639704575466 0.0
0.1992598024319625 -0.2914065385890462 0.0
0.7797476750659934 -0.1433551185165854 0.0
0.8007538745909536 -0.1598626555517572 0.0
1.5587093685508711 -0.0758686411260600 0.0
0.5629780129470472 -0.0588714726760659 0.0
0.6341812066220989 -0.0786884357375136 0.0
0.6585778548544720 -0.0809713631832710 0.0
1.2611442597033764 0.0573360234961041 0.0
1.2108915010439654 0.0466045454220603 0.0
0.6391762176568706 0.0333646345607736 0.0
0.6398653401673958 0.0308908239737755 0.0
1.4565028207997637 -0.0532935318189546 0.0
0.3161188025813432 -0.0547800384059318 0.0
0.3331894021332182 -0.0586329806856872 0.0
0.2470182643365899 -0.1161525753058348 0.0
0.2677809625409580 -0.1176434108101335 0.0
0.7320952315926069 0.0589673513939274 0.0
0.7337160754011554 0.1059759384181856 0.0
0.0350735009470114 -0.3762746892329610 0.0
1.3143262136290506 -0.7169374109496686 0.0
1.3420975107727879 -0.7488598307181925 0.0
0.6717828143655965 -0.6447161633043359 0.0
0.7630932581962577 -0.5774578954683957 0.0
1.4140716252289893 -0.4221535182658991 0.0
0.6068903280648308 0.0251779830778628 0.0
0.6306083776701000 -0.0175716229953822 0.0
0.5369694017187927 -0.1089712679553268 0.0
0.5395140797003847 -0.1066706320331949 0.0
0.6717770834766996 -1.2211985462753761 0.0
0.1003775894831335 -0.0245684673550204 0.0
0.0952396058158970 -0.0255026856049807 0.0
0.5788769579913039 -0.7493966421473365 0.0
0.6719447964964487 -0.0977152612953319 0.0
0.6706495273760292 -0.1056062348945113 0.0
1.3089443879890683 -0.1386740798303489 0.0
1.3145052501576531 -0.1136405098393830 0.0
0.4756958044486093 -0.3219884622678541 0.0
0.4166555460947546 -0.3227220717765233 0.0
-0.0038398447539916 -0.1746671508639703 0.0
1.3715258872457714 -0.1511038184405110 0.0
0.6126980403009403 -0.8210560884617257 0.0
0.1203683288252624 -0.4477758914181282 0.0
0.4361488018481688 -0.7208225692110717 0.0
0.9842925297496723 -0.9817415410611158 0.0
0.8935460464500206 -1.1559641968724181 0.0
1.4965682889328695 -0.0645548731488276 0.0
1.4921909082505918 -0.0958827831872059 0.0
0.6448732167101584 -1.2229709527977386 0.0
1.0395353700291632 -0.2673849930769663 0.0
0.9910328658844689 -0.2173571558802443 0.0
0.5195746198198961 -0.1606944549175590 0.0
0.5028591352639560 -0.1668259822388310 0.0
1.5579762548039804 -0.1077471299540774 0.0
0.9755921059984978 -1.0832070970044880 0.0
0.4120413092283141 -1.0692335640059976 0.0
1.2117092239558402 -0.1680445466582981 0.0
1.5663611669394777 -0.0912799590336335 0.0
1.5758058201702940 -0.0961707795525400 0.0
1.2811692667318937 -0.1690663552053619 0.0
0.1045796785661080 -0.0102141635434261 0.0
0.1125223847672828 -0.0084416279271931 0.0
0.4214063891374404 0.0675287153045152 0.0
1.3611884623079835 -0.1370194114396888 0.0
1.3226886534093873 0.0319964156440270 0.0
0.4351375973251482 -0.8913541897620869 0.0
0.1239322664516811 -0.2410279663116713 0.0
0.1011219172257322 -0.2092496323184470 0.0
0.1674366570488389 -0.0856931264501803 0.0
0.1490711427474285 -0.0817433469900380 0.0
0.3755133381930885 -0.6552555533909025 0.0
0.0017322300677411 -0.1274258151526063 0.0
0.8950902458671719 -0.8464180073894040 0.0
0.5212079899879800 0.0366206329699778 0.0
0.5042759162106910 0.0190599382043623 0.0
1.4810551238733016 -0.0479217104814996 0.0
1.4811806208619653 -0.0595863017556034 0.0
0.9392995774234872 -1.0807996020523392 0.0
1.5949694244378652 -0.1706158250887973 0.0
0.4290155866456716 -0.0484025721749769 0.0
0.0269642516634134 -0.0443581604943109 0.0
0.0195740867834000 -0.0386383547517532 0.0
0.3705458963833793 -0.8160134220965555 0.0
0.0235203303464679 -0.1201315774769556 0.0
0.7145425515142800 -0.9062020176742310 0.0
1.4460778509847678 -0.1397851380585995 0.0
0.6470021032338543 -0.4087463858270741 0.0
0.6059738905369826 -0.4288939343025877 0.0
0.6235679942760586 -1.1716166329752624 0.0
0.6699560980798118 0.0782500763167530 0.0
0.6670824988669072 0.0808772078240479 0.0
0.7776943036419314 -1.1290573264637140 0.0
0.1252284791118324 -0.6319461918490228 0.0
0.1079570921556661 -0.4967905620657634 0.0
0.0060121478888300 -0.1228506738514130 0.0
0.8421538012402586 0.0649187244037334 0.0
0.8048398792394102 0.0968376251863045 0.0
0.8329920193507163 -0.0507718147239304 0.0
0.8044982973274380 -0.0671069692728843 0.0
0.3137712304032174 -0.8914927311754743 0.0
0.6519997993553529 -0.1542163105077510 0.0
0.7635745133857903 -0.9880199327824022 0.0
1.3528867145390580 -0.7784684304724661 0.0
0.5365907408876935 0.0840833658077387 0.0
1.4804719961938160 -0.0117457913964288 0.0
1.4841644483315863 -0.0078301939311151 0.0
1.0413495388391070 -1.0242750182393809 0.0
0.7261975102032320 -1.1491100041553228 0.0
1.3287087512773703 -0.1610220047874712 0.0
0.7032983806166740 -1.1874714266335968 0.0
0.0738302088946137 -0.4185342576093634 0.0
1.1855110446188222 -0.0595581145986251 0.0
0.3746223760234345 -0.9560530993687588 0.0
1.6489528985538546 -0.0929651655642402 0.0
0.4108827774732304 -0.0051161960933533 0.0
1.5810964186483236 -0.0861288237892621 0.0
1.5503198324534615 -0.0993191639958006 0.0
-0.0016199767453665 -0.0003085823422700 0.0
0.0004870827484012 -0.0000133586829570 0.0
0.5347414590127941 0.0424188311209644 0.0
0.3465615879677137 -0.0468844444485538 0.0
-0.0002103210155279 -0.0060137759748504 0.0
0.0014334195854666 -0.0063535411522606 0.0
0.5559682696685477 -0.0345144866712629 0.0
0.6285017047353907 -0.8684526718455725 0.0
0.5590891035487274 -0.0341106092177622 0.0
0.5531552140020668 -0.0270586643535158 0.0
0.6958978443395850 -0.3056455797732732 0.0
0.7409663309340612 -0.3002123499748616 0.0
0.6287880893345648 -0.7501585486255780 0.0
0.3166663208908803 -0.3949707237093791 0.0
0.3612563292221416 -0.4282252770575156 0.0
0.0053983552563761 -0.0012890050374005 0.0
0.0017961196862144 -0.0015815165380931 0.0
1.3021832482472777 -0.4784084842295477 0.0
1.3334856906775647 -0.6494431879186972 0.0
0.9265197908397144 -0.6031657248258026 0.0
0.7610822386397968 -0.4441944383805841 0.0
