# vtk DataFile Version 3.0
LucasCarvalhoTCC Results
ASCII

DATASET POLYDATA
FIELD FieldData 1
TIME 1 1 double
1.9000000000000001

POINTS 380 float
0.0 2.0 0.0
2.0 2.0 0.0
3.0 2.0 0.0
3.0 1.0 0.0
5.0 1.0 0.0
5.0 0.0 0.0
3.0 0.0 0.0
2.0 0.0 0.0
2.0 1.0 0.0
0.0 1.0 0.0
0.2643114543905713 2.0 0.0
0.5169795502969444 2.0 0.0
0.7585171880292413 2.0 0.0
0.9894145836600268 2.0 0.0
1.210140497826619 2.0 0.0
1.421143008568911 2.0 0.0
1.622850459538253 2.0 0.0
1.815672303789548 2.0 0.0
2.188552664328277 2.0 0.0
2.359329284173903 2.0 0.0
2.514005696104645 2.0 0.0
2.654099788331341 2.0 0.0
2.780986322989182 2.0 0.0
2.895910470953052 2.0 0.0
3.0 1.9 0.0
3.0 1.8 0.0
3.0 1.7 0.0
3.0 1.6 0.0
3.0 1.5 0.0
3.0 1.4 0.0
3.0 1.3 0.0
3.0 1.2 0.0
3.0 1.1 0.0
3.105031513416626 1.0 0.0
3.221094637894669 1.0 0.0
3.349348047908936 1.0 0.0
3.491072094154001 1.0 0.0
3.647681638607018 1.0 0.0
3.820740106959136 1.0 0.0
4.011975186625977 1.0 0.0
4.223295996958671 1.0 0.0
4.456812096249916 1.0 0.0
4.714854728122151 1.0 0.0
5.0 0.7500000000000003 0.0
5.0 0.5000000000000012 0.0
5.0 0.2500000000000011 0.0
4.735688545609428 0.0 0.0
4.483020449703056 0.0 0.0
4.241482811970759 0.0 0.0
4.010585416339973 0.0 0.0
3.789859502173381 0.0 0.0
3.578856991431089 0.0 0.0
3.377149540461747 0.0 0.0
3.184327696210452 0.0 0.0
2.811447335671723 0.0 0.0
2.640670715826097 0.0 0.0
2.485994303895355 0.0 0.0
2.345900211668659 0.0 0.0
2.219013677010818 0.0 0.0
2.104089529046948 0.0 0.0
2.0 0.1 0.0
2.0 0.2 0.0
2.0 0.3 0.0
2.0 0.4 0.0
2.0 0.5 0.0
2.0 0.6 0.0
2.0 0.7 0.0
2.0 0.8 0.0
2.0 0.9 0.0
1.894968486583374 1.0 0.0
1.77890536210533 1.0 0.0
1.650651952091063 1.0 0.0
1.508927905845999 1.0 0.0
1.352318361392982 1.0 0.0
1.179259893040864 1.0 0.0
0.9880248133740233 1.0 0.0
0.7767040030413299 1.0 0.0
0.5431879037500846 1.0 0.0
0.2851452718778493 1.0 0.0
0.0 1.25 0.0
0.0 1.499999999999999 0.0
0.0 1.749999999999999 0.0
2.426045913985508 1.348290599604586 0.0
2.562221387987337 0.6558377602558874 0.0
1.966703786708101 1.492474555319359 0.0
3.033486484223225 0.4973568340887861 0.0
2.371610747520728 0.97814425147097 0.0
2.648098402859118 1.648016516253387 0.0
2.351901597140882 0.3519834837466129 0.0
2.694321138879857 1.061432730999581 0.0
1.441644339445862 1.496646809257773 0.0
3.554831642064292 0.501744031268764 0.0
2.720742750697982 1.350625068836981 0.0
2.282037541072919 0.639419348257894 0.0
2.813390610951134 0.7911761792959446 0.0
2.310700631729327 1.679155452525512 0.0
2.688751528716965 0.3206838402855661 0.0
2.211165393176843 1.213708510063781 0.0
0.9449004170027906 1.496357611130017 0.0
4.05509958299721 0.5036423888699835 0.0
3.025501657200047 0.7528388163714679 0.0
1.714778657098197 1.300039655550584 0.0
1.958264922640818 1.245975101752485 0.0
2.206386339371814 0.8500000000000001 0.0
3.336706349465057 0.704398544338507 0.0
4.529565928894533 0.555233644424822 0.0
0.4704340711054673 1.444766355575178 0.0
2.186983355180128 1.461437746541105 0.0
2.553715879020142 0.8859594914241276 0.0
2.782212276375736 0.5474565156445963 0.0
2.500206140967324 1.148517546040804 0.0
2.803373162317882 1.783880361314082 0.0
2.196626837682118 0.2161196386859174 0.0
1.735623536927746 1.664129737658362 0.0
3.268802735993943 0.3358439745752063 0.0
2.799454045372581 1.51553500056848 0.0
2.18762015375897 0.4992029885790829 0.0
2.813478812948685 1.18678600527921 0.0
2.400994471757771 0.7612313552289275 0.0
2.405444563947088 0.5311203927463914 0.0
2.583195945356847 1.473216966241769 0.0
3.734210872783077 0.7260959952797862 0.0
1.256500988572085 1.265010492624376 0.0
2.938353069321001 0.2909212553641365 0.0
2.061245308362322 1.709221243241415 0.0
2.182240881432738 1.001025052084926 0.0
2.830214026212788 0.9796244234047695 0.0
2.49023894829247 1.787687811117195 0.0
2.50976105170753 0.2123121888828049 0.0
1.194806886820808 1.686899295332255 0.0
3.805193113179192 0.3131007046677451 0.0
2.655039231860651 1.208917360245127 0.0
1.493530449555064 1.231198576616718 0.0
2.345622594939228 1.152685186835846 0.0
2.41380980106708 1.521513100394759 0.0
2.58979513084283 0.4863225267637531 0.0
2.135472648094309 0.7246460081196311 0.0
2.912574128751924 0.660128736186259 0.0
2.866043013605144 1.353074765380587 0.0
0.6928324624395237 1.69170809873467 0.0
4.307167537560476 0.3082919012653306 0.0
2.071506740582853 1.128535871978767 0.0
0.6831902494895832 1.302725441792086 0.0
4.316809750510417 0.6972745582079137 0.0
2.85534466702333 1.667491236848871 0.0
2.141886244104996 0.336139391754002 0.0
1.447743165823209 1.773242752731258 0.0
3.554386585610856 0.224002072703283 0.0
2.96485662756902 0.8593908564801968 0.0
3.240425509636175 0.8099760775594669 0.0
2.088410584923666 1.339747073830609 0.0
3.277530767974837 0.4939020807639749 0.0
3.534313505233912 0.7935179117986669 0.0
2.546683861402325 1.011736398479819 0.0
2.664793655038503 0.758149595673951 0.0
2.7009922066801 0.9086021996324817 0.0
1.844652141496971 1.153158997353228 0.0
2.575910747861113 1.316876286520138 0.0
3.994328863599566 0.7454319923658932 0.0
1.005671136400434 1.254568007634107 0.0
1.722192091537185 1.482888323667831 0.0
2.644751416415203 1.850904811198953 0.0
2.355248583584797 0.1490951888010467 0.0
2.31560379269905 1.25706851182614 0.0
2.129697972466254 0.5864366202645266 0.0
2.417220568140766 0.6397160301847872 0.0
2.867945749403976 1.069821281672812 0.0
3.182303046124178 0.6739667261124369 0.0
4.702774994215813 0.2953677284017739 0.0
0.2972250057841874 1.704632271598226 0.0
2.90043748182062 0.4316738443013928 0.0
2.486081387366873 0.3514585853722887 0.0
2.513918612633127 1.648541414627711 0.0
2.086778258621772 1.563111332603502 0.0
4.025359850459486 0.2638518716814435 0.0
0.9746401495405139 1.736148128318556 0.0
3.116389458098145 0.2933651166122753 0.0
1.885410353788165 1.707062521230272 0.0
2.327134732627959 1.833634230002939 0.0
2.672865267372041 0.1663657699970617 0.0
1.675899428547673 1.15999616666306 0.0
1.858973331615206 1.373382723203102 0.0
2.860266039499884 1.862282581689995 0.0
2.139733960500116 0.1377174183100045 0.0
1.257473476073173 1.479081588926576 0.0
3.731624273377778 0.5208146070195914 0.0
2.115038607594509 0.9238947313642476 0.0
0.2734661728051435 1.270630989444945 0.0
4.726533827194856 0.7293690105550548 0.0
2.699965708650878 1.465007479364728 0.0
2.298365077320068 0.5341069340550768 0.0
2.510583000486659 0.7602856732279889 0.0
3.370667741214912 0.8392397884376295 0.0
3.067541604254986 0.8806352314757129 0.0
2.90073732483139 1.443475210354718 0.0
2.264071206758208 0.9501943312745662 0.0
2.278663096491763 0.7489636980394857 0.0
1.952511813454414 1.110576661474517 0.0
2.744352083917141 0.687787375233183 0.0
1.566252941493004 1.383661493752942 0.0
2.437660520624072 0.8703573012735125 0.0
2.904826075218911 1.261819176983655 0.0
2.305967018083784 1.391390767447104 0.0
2.105729326736999 0.8145314366030645 0.0
2.428967188976762 1.236966721617647 0.0
3.060475488407204 0.1442825789852263 0.0
1.934979199332455 1.852811714602595 0.0
2.095475260770118 0.4348597444661615 0.0
2.914777085426361 1.759093454264707 0.0
2.084827330449114 0.2414252069642749 0.0
2.207128288422204 1.315477221019454 0.0
2.658751426439581 0.5773232450959589 0.0
2.612380011409894 1.114144853433198 0.0
2.897371573983894 1.569769587751228 0.0
0.5001010519014215 1.226918930408543 0.0
4.499898948098578 0.7730810695914568 0.0
2.753086810589338 1.690362801865437 0.0
2.246793053318422 0.3097947118702842 0.0
3.391580469276819 0.5673489147038103 0.0
3.035026488699165 0.6179797538177514 0.0
2.449819864663089 1.055109427275025 0.0
2.27653308928065 1.054384468582349 0.0
2.794675693196835 1.418106589018447 0.0
2.778866980525137 1.083577784614141 0.0
2.244522876020972 0.1116738824400324 0.0
2.755477123979027 1.888326117559968 0.0
2.323887028942199 0.8604475039748537 0.0
2.204900210979926 1.747483509451062 0.0
2.794853185869193 0.2526222191943996 0.0
2.320767315286541 1.530441598510029 0.0
1.550828143561484 1.606851581022188 0.0
2.796593663741882 1.288013595743853 0.0
3.436143660897262 0.3940652474171653 0.0
2.682379445750112 0.4493639922429763 0.0
3.242313228541417 0.154845696987206 0.0
1.75965289115187 1.844031320058407 0.0
1.3642341383496 1.159631408929946 0.0
1.980047380836635 1.36362624976796 0.0
2.070303834520089 1.451946835577872 0.0
2.55866460451515 1.229901920133861 0.0
4.26844523535139 0.499131154814159 0.0
0.7315547646486098 1.500868845185841 0.0
2.716116351489881 1.570657861970705 0.0
2.283245236086922 0.4299499540566049 0.0
4.50573905238033 0.204273435313806 0.0
0.4942609476196695 1.795726564686194 0.0
3.605070352001925 0.644396355247622 0.0
3.171946621948212 0.9019117497969773 0.0
3.40309695214227 0.1789624633199048 0.0
1.59690304785773 1.821037536680094 0.0
4.776800700354217 0.5074282293075529 0.0
0.2231992996457826 1.492571770692447 0.0
1.293020597407515 1.839015256431498 0.0
3.706979402592485 0.1609847435685022 0.0
1.398281395597716 1.351857389185529 0.0
2.880181082677912 0.1378504756446906 0.0
2.119200639021148 1.861833157788504 0.0
2.408646939494887 0.2452196658480275 0.0
2.591353060505113 1.754780334151973 0.0
1.146570081566377 1.160946826906423 0.0
3.853429918433624 0.8390531730935771 0.0
2.920846657438631 1.149071660619678 0.0
2.101132283911678 1.226382957654413 0.0
2.903672483971366 0.7774662795474147 0.0
2.516386521935266 0.571665255016536 0.0
2.475412447847437 1.444413760085193 0.0
2.903041575637174 0.5510905120278109 0.0
3.666476299189054 0.8553176740217776 0.0
1.558137053653031 1.119389262041809 0.0
3.867595456948903 0.1475874639835382 0.0
1.132404543051097 1.852412536016462 0.0
2.635017655944937 0.9730281566682446 0.0
2.436667490139274 1.901171080200935 0.0
2.563332509860726 0.09882891979906516 0.0
2.091598337090247 1.040423151014485 0.0
0.8316881289508771 1.172977685150089 0.0
4.168311871049123 0.827022314849911 0.0
3.648565743761548 0.3681286963687066 0.0
1.355037313653319 1.636865536133179 0.0
2.58412781071005 1.576586299624529 0.0
2.41587218928995 0.4234137003754711 0.0
2.083716468691946 0.6634832154935376 0.0
1.843942294678346 1.256771801786488 0.0
[...]
POINT_DATA 380

VECTORS Velocity float
0.0000000000000000 0.0000000000000000 0.0
0.0000000000000000 0.0000000000000000 0.0
0.0000000000000000 0.0000000000000000 0.0
0.0000000000000000 0.0000000000000000 0.0
0.0000000000000000 0.0000000000000000 0.0
0.9186784114078504 -0.1329393645105575 0.0
0.0000000000000000 0.0000000000000000 0.0
0.0000000000000000 0.0000000000000000 0.0
0.0000000000000000 0.0000000000000000 0.0
0.0000000000000000 0.0000000000000000 0.0
0.0000000000000000 0.0000000000000000 0.0
0.0000000000000000 0.0000000000000000 0.0
0.0000000000000000 0.0000000000000000 0.0
0.0000000000000000 0.0000000000000000 0.0
0.0000000000000000 0.0000000000000000 0.0
0.0000000000000000 0.0000000000000000 0.0
0.0000000000000000 0.0000000000000000 0.0
0.0000000000000000 0.0000000000000000 0.0
0.0000000000000000 0.0000000000000000 0.0
0.0000000000000000 0.0000000000000000 0.0
0.0000000000000000 0.0000000000000000 0.0
0.0000000000000000 0.0000000000000000 0.0
0.0000000000000000 0.0000000000000000 0.0
0.0000000000000000 0.0000000000000000 0.0
0.0000000000000000 0.0000000000000000 0.0
0.0000000000000000 0.0000000000000000 0.0
0.0000000000000000 0.0000000000000000 0.0
0.0000000000000000 0.0000000000000000 0.0
0.0000000000000000 0.0000000000000000 0.0
0.0000000000000000 0.0000000000000000 0.0
0.0000000000000000 0.0000000000000000 0.0
0.0000000000000000 0.0000000000000000 0.0
0.0000000000000000 0.0000000000000000 0.0
0.0000000000000000 0.0000000000000000 0.0
0.0000000000000000 0.0000000000000000 0.0
0.0000000000000000 0.0000000000000000 0.0
0.0000000000000000 0.0000000000000000 0.0
0.0000000000000000 0.0000000000000000 0.0
0.0000000000000000 0.0000000000000000 0.0
0.0000000000000000 0.0000000000000000 0.0
0.0000000000000000 0.0000000000000000 0.0
0.0000000000000000 0.0000000000000000 0.0
0.0000000000000000 0.0000000000000000 0.0
1.1554899225390423 0.3628591790986443 0.0
0.7957838097298400 0.0610870342943098 0.0
1.1392548505890137 -0.2977713833649424 0.0
0.0000000000000000 0.0000000000000000 0.0
0.0000000000000000 0.0000000000000000 0.0
0.0000000000000000 0.0000000000000000 0.0
0.0000000000000000 0.0000000000000000 0.0
0.0000000000000000 0.0000000000000000 0.0
0.0000000000000000 0.0000000000000000 0.0
0.0000000000000000 0.0000000000000000 0.0
0.0000000000000000 0.0000000000000000 0.0
0.0000000000000000 0.0000000000000000 0.0
0.0000000000000000 0.0000000000000000 0.0
0.0000000000000000 0.0000000000000000 0.0
0.0000000000000000 0.0000000000000000 0.0
0.0000000000000000 0.0000000000000000 0.0
0.0000000000000000 0.0000000000000000 0.0
0.0000000000000000 0.0000000000000000 0.0
0.0000000000000000 0.0000000000000000 0.0
0.0000000000000000 0.0000000000000000 0.0
0.0000000000000000 0.0000000000000000 0.0
0.0000000000000000 0.0000000000000000 0.0
0.0000000000000000 0.0000000000000000 0.0
0.0000000000000000 0.0000000000000000 0.0
0.0000000000000000 0.0000000000000000 0.0
0.0000000000000000 0.0000000000000000 0.0
0.0000000000000000 0.0000000000000000 0.0
0.0000000000000000 0.0000000000000000 0.0
0.0000000000000000 0.0000000000000000 0.0
0.0000000000000000 0.0000000000000000 0.0
0.0000000000000000 0.0000000000000000 0.0
0.0000000000000000 0.0000000000000000 0.0
0.0000000000000000 0.0000000000000000 0.0
0.0000000000000000 0.0000000000000000 0.0
0.0000000000000000 0.0000000000000000 0.0
0.0000000000000000 0.0000000000000000 0.0
1.0000000000000000 0.0000000000000000 0.0
1.0000000000000000 0.0000000000000000 0.0
1.0000000000000000 0.0000000000000000 0.0
0.8426298469392222 -0.7224147938515849 0.0
0.7485566629910502 -0.7326713749907194 0.0
1.4633914405950998 -0.2578503928516866 0.0
1.4034112053532517 -0.2595770242230741 0.0
0.5674161374874152 -1.1233977420964387 0.0
0.3428164547688003 -0.1983327595667983 0.0
0.3086729396283935 -0.2007208601966140 0.0
0.5479699278762783 -1.1637856291596123 0.0
1.5681253247405840 -0.0816943497532875 0.0
1.6015526591581357 -0.1123701272250898 0.0
0.2799988248981508 -0.6927524149748148 0.0
0.2606746858668446 -0.6505948196997604 0.0
1.1143261961581099 -1.0032033865013978 0.0
0.7256050420418118 -0.1792826625157019 0.0
0.7027680788768210 -0.1720869993485704 0.0
1.1211138518578192 -0.9065592186479927 0.0
1.5996044627820092 -0.0161204087797156 0.0
1.5970268356761832 -0.0058059872332813 0.0
1.4931840103804792 -0.3858155258408789 0.0
1.4959418186194542 -0.0875742420796279 0.0
1.4549413306268897 -0.3483562104762573 0.0
0.2383867961760715 -0.9327743039475096 0.0
1.5041755229283154 -0.0810464206757097 0.0
1.5838184744596953 0.0098320510595720 0.0
1.5334904327539021 0.0355263162871797 0.0
1.2083464238961847 -0.4690208150730588 0.0
0.6476650316124616 -1.0296293651560156 0.0
1.1120556149256680 -0.4203956938065783 0.0
0.6412395736106514 -1.0352851642800542 0.0
0.1157224225319914 -0.0651896196775735 0.0
0.0979217818516984 -0.0660768260810161 0.0
1.1852265289800448 -0.0800394483130160 0.0
1.1309007487333524 -0.0825428331264120 0.0
0.1448345739082470 -0.3703481873613371 0.0
0.1096972143881595 -0.3234257654183891 0.0
0.1530374878597004 -0.8337492270049502 0.0
0.4710116161423091 -0.9005175095473016 0.0
0.4750580588955204 -0.5204941379804310 0.0
0.5275725875922572 -0.5017191198127303 0.0
1.3866315914060190 -0.0114779882600184 0.0
1.3035850205625672 -0.0815091191491368 0.0
0.8354407259519094 -0.1227983017622495 0.0
0.8822297304297473 -0.1204006842999767 0.0
0.5742275043201289 -1.0988284295501662 0.0
0.6206620590557271 -1.1984487206605035 0.0
0.3537470646708805 -0.0267015069235241 0.0
0.3387643365142269 -0.0316709447118556 0.0
1.2809809319578138 0.0145266727656559 0.0
1.2820194032818006 0.0127335712793347 0.0
0.4434003903613230 -0.9615572087798946 0.0
1.2571439447645529 -0.0075266047660829 0.0
0.8333194743820138 -1.0195861905866002 0.0
0.7600830531269631 -0.4151920940172588 0.0
0.7790833862995746 -0.4521764839648148 0.0
-0.0080816082445328 -0.4561878653035445 0.0
1.4465306095690846 -0.5688749838414042 0.0
0.0562883223507870 -0.4667492674947025 0.0
1.3440836053152525 0.0068466832597996 0.0
1.3439907020250188 0.0156986823513037 0.0
1.1623841198557012 -0.8273615086871782 0.0
1.3766363180370098 -0.0382656541523564 0.0
1.3746071628820222 -0.0556699666467816 0.0
0.0990268823457301 -0.1292195199341422 0.0
0.0849616467378356 -0.1236602134551096 0.0
0.7960839149279691 -0.0090214804834799 0.0
0.7861349864493807 -0.0224559541238669 0.0
1.2881756835227327 -0.6286784715483785 0.0
1.2507384245163768 -0.1139895584091468 0.0
1.3914314822049647 -0.5689951441477370 0.0
1.5161757146738737 -0.0880608364940633 0.0
1.2026687614945175 -0.0646625841015956 0.0
0.6197228907871450 -1.0851761684568360 0.0
0.8696638217217018 -0.8656706757729267 0.0
0.7680514752874862 -1.1673152268366329 0.0
1.1274033880396730 -0.0761156840206250 0.0
0.5574920864222566 -0.7842012624377397 0.0
1.0649157978352402 -0.0501494840297774 0.0
1.0665919487629036 -0.0505281339290447 0.0
1.5574320662794396 -0.0806692491661182 0.0
0.1302569457963789 -0.0406045122731715 0.0
0.1204479716828496 -0.0400165609823491 0.0
0.9748711347004155 -0.8478244243179081 0.0
0.0457529858110444 -0.2554512710435918 0.0
0.4804359324083186 -0.6819432734404888 0.0
0.2237090733586812 -0.8974012857936728 0.0
1.5416230400459570 -0.1860886412295291 0.0
1.2277178557470354 -0.2192618982071030 0.0
1.2099035868892585 -0.2005744182726114 0.0
1.1563854344470657 -0.2655424318179170 0.0
0.4753886022475359 -0.2094685164514012 0.0
0.5018710613892343 -0.1988594998672902 0.0
1.2266735514002427 -0.2843532956774654 0.0
1.0463140188970037 -0.0240556383987079 0.0
1.0444174583714334 -0.0249459971523760 0.0
0.9631044904813557 -0.1050352200508311 0.0
1.0124500053532957 -0.1084240752510575 0.0
0.2999667240464887 -0.0487852501717934 0.0
0.2944039834990246 -0.0472194625889792 0.0
0.8535572084483788 -0.0296821385919609 0.0
1.5489817947703413 -0.1717150352822726 0.0
0.0581594828290249 -0.0086542943750970 0.0
0.0456217384239850 -0.0112369512563667 0.0
1.5352081437256753 -0.0965975558882906 0.0
1.5661475022648992 -0.1217939586618130 0.0
0.1236097120899127 -0.5864719329699135 0.0
1.0962752664614084 0.2302467380893307 0.0
1.0949494456817397 0.2303903464615557 0.0
0.3018777492539398 -0.5070358646308301 0.0
0.2672765551086965 -0.4696973847019923 0.0
0.6302380775165687 -0.9096961969025179 0.0
0.9302390318325812 -0.0601405283716845 0.0
0.9106608824125549 -0.1976841880198273 0.0
0.0432391894798519 -0.2301827746803305 0.0
0.4669791174619001 -1.1456375157483456 0.0
0.2483108241556827 -0.8665781017589474 0.0
0.8390884427785745 -0.1370723943042905 0.0
1.0667140032004820 -0.7523624506990756 0.0
1.5521086289417738 -0.0637376402250236 0.0
0.5471146834733713 -1.0308420802145000 0.0
0.0079466501587545 -0.3838927351626262 0.0
1.0336624537051005 -0.6152411793271866 0.0
0.0467942166078849 -0.3668455329818568 0.0
0.7563844766668062 -0.9296346908978742 0.0
0.4303177113402962 -0.0197486895308144 0.0
0.4421017240287802 -0.0165764993550603 0.0
0.0670809139550689 -0.1285500504434837 0.0
0.0643745256404908 -0.0301037515119093 0.0
0.0511884953240308 -0.0300255315011493 0.0
1.2187765923721463 -0.7508513026482910 0.0
0.9151102655287888 -0.5780855101282090 0.0
0.5655366871160520 -1.0661136345775508 0.0
0.0515091021953205 -0.1459850523548134 0.0
0.8665820123224837 0.1644012370918685 0.0
0.8402061918722016 0.1314397016259176 0.0
0.2125018101864656 -0.1748403907942337 0.0
0.1882051850402646 -0.1715904998585841 0.0
1.6234584998693780 -0.1178331255620925 0.0
1.5489560907259348 -0.3385009061691516 0.0
0.6371351414857565 -1.0944480800936567 0.0
0.7026577645095928 -1.1447045128413234 0.0
0.1547410375908015 -0.4781082741022364 0.0
0.4075404049315288 -1.1255041271775361 0.0
0.0582712481052050 -0.0295117905411390 0.0
0.0664988917949140 -0.0298352629667315 0.0
0.4412047126546938 -1.0533287192312868 0.0
0.6763764388648593 -0.1279819764703032 0.0
0.6518179802284594 -0.1193181601663300 0.0
0.9542124913564655 -0.3904731444697082 0.0
1.3549422208859614 -0.0345429422400737 0.0
0.1526935877308886 -0.6629088625995002 0.0
1.3077377764533658 -0.0561395725510540 0.0
0.9222297042545254 -0.3706504168438174 0.0
0.5200134080786262 -0.0307610188807657 0.0
0.5330342373859739 -0.0340122870519116 0.0
0.8927109657928697 -0.0227244136357362 0.0
1.4981894113952554 -0.3636115813517847 0.0
1.4068335206789437 -0.4033166884612640 0.0
0.5596795800324111 -0.9302818326718403 0.0
1.5994778533374567 -0.0517590058135619 0.0
1.5894760326282340 -0.0440672582423832 0.0
0.2676475791814965 -0.3110499598349664 0.0
0.2359848366460710 -0.3056075195522020 0.0
0.7788929854064336 -0.1428586420037185 0.0
0.8004842884826233 -0.1598016441714161 0.0
1.5504227846750720 -0.0749464378177119 0.0
0.5771033001296656 -0.0668414722834526 0.0
0.6458696605650078 -0.0761450808095946 0.0
0.6629797457054351 -0.0807831255382515 0.0
1.2610599939762930 0.0561842466084567 0.0
1.2108502073458967 0.0462303421241576 0.0
0.6426795445997375 0.0343701442994807 0.0
0.6447189050022840 0.0332557050919601 0.0
1.4532816272308442 -0.0579455568979139 0.0
0.3349291102085562 -0.0547656204117268 0.0
0.3457082882443684 -0.0568283090225723 0.0
0.2918726165029296 -0.1168202056022057 0.0
0.3107346673609395 -0.1156752146180757 0.0
0.7306068606189472 0.0594626580528881 0.0
0.7325652625602270 0.1057866710781882 0.0
0.0070246164146651 -0.4212448681042268 0.0
1.3112218149789094 -0.7374235775811830 0.0
1.3324619775363333 -0.7782220575325123 0.0
0.6557510032136761 -0.5967957811992903 0.0
0.7298492048431930 -0.5263765299540933 0.0
1.3558246332276938 -0.4188401707357707 0.0
0.6063548771190896 0.0246369544417360 0.0
0.6362008668583836 -0.0230131745957799 0.0
0.5393846753253578 -0.1079289935908208 0.0
0.5417238221795629 -0.1058692684759065 0.0
0.6474711621749194 -1.1415147582460350 0.0
0.1147391342364835 -0.0248569802688922 0.0
0.1103921916918670 -0.0258657366990029 0.0
0.6042674387678334 -0.8230583366516934 0.0
0.6722326398018237 -0.0971895523583161 0.0
0.6710213541773206 -0.1049604048154805 0.0
1.3129154716295723 -0.1313427655319060 0.0
1.3167580553107272 -0.1127062101324701 0.0
0.5011894288968363 -0.3058945005498554 0.0
0.4488992891810296 -0.3119078982771744 0.0
-0.0222355534983885 -0.2091158265996958 0.0
1.3769908687501666 -0.1728954476436016 0.0
0.6297228494553563 -0.9008092505042867 0.0
0.1301800739398627 -0.4829678729398900 0.0
0.4314684645734196 -0.6744017984466280 0.0
1.0026526619092477 -1.0294832439547708 0.0
0.8806309017234669 -1.1670052349661908 0.0
1.4938096320272309 -0.0620986412276867 0.0
1.4900505903857630 -0.0932396791797267 0.0
0.6318794668876799 -1.2109998586142723 0.0
1.0244400578001271 -0.2507436037685822 0.0
0.9846857999845657 -0.2084927712653796 0.0
0.5547507036844791 -0.1517310839464283 0.0
0.5436138100223554 -0.1596354218662326 0.0
1.5477450310492851 -0.1082283384854937 0.0
0.9377409173954313 -1.0437014495311283 0.0
0.3979402288797955 -1.0512409501984539 0.0
1.2072811946581676 -0.1670054913248688 0.0
1.5663906029706085 -0.0879879813294572 0.0
1.5758035023796959 -0.0924719038718796 0.0
1.2630841390773355 -0.1626702434192649 0.0
0.1246509969565961 -0.0080256191864694 0.0
0.1317545342290619 -0.0061041980802154 0.0
0.4297491622771515 0.0651195826612500 0.0
1.3501583825423908 -0.1332229440660591 0.0
1.3275906899926213 0.0174453782232449 0.0
0.4230469282042303 -0.8366944350915652 0.0
0.1613054794776796 -0.2516664478135024 0.0
0.1352285181002578 -0.2310325221441342 0.0
0.2131222773056296 -0.0808115783823186 0.0
0.1932783917087245 -0.0821333850478032 0.0
0.3799549711229112 -0.6370740627615531 0.0
-0.0219997210414124 -0.1509901523577691 0.0
0.8464590443127263 -0.7841012339443433 0.0
0.5217907147494175 0.0366200713737929 0.0
0.5051724861487428 0.0193332986926534 0.0
1.4807171085364406 -0.0466797657271883 0.0
1.4808189987675777 -0.0580711091868826 0.0
0.9171311615943170 -1.0774066006995215 0.0
1.5549315976744138 -0.1801946575914019 0.0
0.4313217377033207 -0.0498254794476534 0.0
0.0558236167204414 -0.0503662375243507 0.0
0.0423025734632793 -0.0467468253383600 0.0
0.3623645528328221 -0.7957236897112693 0.0
0.0316670125479402 -0.1460566330296542 0.0
0.6802756076104106 -0.8223252851305336 0.0
1.4232118907340221 -0.1365947974029718 0.0
0.6491745992189575 -0.3779683347634968 0.0
0.6147648308421664 -0.4037244816387593 0.0
0.6020416262424423 -1.0769400836983531 0.0
0.6701509950153759 0.0786858704136982 0.0
0.6672745737661637 0.0813066927878925 0.0
0.7453258065119306 -1.0476357620662011 0.0
0.1114953893523836 -0.6925906108938759 0.0
0.1026807033238149 -0.5451293055591869 0.0
-0.0045402773501732 -0.1419984706775280 0.0
0.8422915599743056 0.0648283277806305 0.0
0.8053581210997588 0.0963052617896171 0.0
0.8329054185527648 -0.0508770126277494 0.0
0.8040965917289489 -0.0676978164166135 0.0
0.3045910298616883 -0.8875840727836435 0.0
0.6895269929455845 -0.1672584139259342 0.0
0.7295896839626409 -0.9050199476605024 0.0
1.3098831687396153 -0.7740716451242725 0.0
0.5548873301421385 0.0814526510658243 0.0
1.4803303984801668 -0.0105884629075807 0.0
1.4839588709413698 -0.0065190150537833 0.0
1.0532427622594045 -1.0790482941814110 0.0
0.6973137284678944 -1.0648989445231651 0.0
1.3443278238190839 -0.1802780131529487 0.0
0.6820095448460344 -1.1313644351328442 0.0
0.0387703995484720 -0.4761595838556731 0.0
1.2068971242391164 -0.0788575755399253 0.0
0.3727625166318647 -1.0274569303801613 0.0
1.6195448678089348 -0.1017076235953781 0.0
0.4114502743671092 -0.0054486328806026 0.0
1.5797704000675796 -0.0854292303371128 0.0
1.5497156082774173 -0.0993192356919247 0.0
0.0140394754567151 0.0035229637529188 0.0
0.0218969267993429 0.0052989473707359 0.0
0.5365700994226410 0.0410986550708359 0.0
0.3647242164103814 -0.0554136816353630 0.0
0.0090985680968940 -0.0045524093525442 0.0
0.0139730582931005 -0.0035439911374612 0.0
0.5545962201430696 -0.0347372588825693 0.0
0.6075824856213899 -0.8006247544670946 0.0
0.5590058141699612 -0.0340759642069630 0.0
0.5529343440100214 -0.0268611772702277 0.0
0.7124557559605749 -0.2857704225053457 0.0
0.7489043613672394 -0.2749871559299336 0.0
0.6017274078938513 -0.6831406100459357 0.0
0.3466484033644166 -0.3896413442462349 0.0
0.3875333228211826 -0.4091224517060830 0.0
0.0392551292019724 0.0059693241793376 0.0
0.0270755766944254 0.0035913525450741 0.0
1.3571466562217236 -0.5116672216805046 0.0
1.2702839905751846 -0.6341730094059803 0.0
0.8794452555772022 -0.5547295891130227 0.0
0.8088590999161989 -0.4801393567027826 0.0
