# vtk DataFile Version 3.0
LucasCarvalhoTCC Results
ASCII

DATASET POLYDATA
FIELD FieldData 1
TIME 1 1 double
0.30000000000000004

POINTS 380 float
0.0 2.0 0.0
2.0 2.0 0.0
3.0 2.0 0.0
3.0 1.0 0.0
5.0 1.0 0.0
5.0 0.0 0.0
3.0 0.0 0.0
2.0 0.0 0.0
2.0 1.0 0.0
0.0 1.0 0.0
0.2643114543905713 2.0 0.0
0.5169795502969444 2.0 0.0
0.7585171880292413 2.0 0.0
0.9894145836600268 2.0 0.0
1.210140497826619 2.0 0.0
1.421143008568911 2.0 0.0
1.622850459538253 2.0 0.0
1.815672303789548 2.0 0.0
2.188552664328277 2.0 0.0
2.359329284173903 2.0 0.0
2.514005696104645 2.0 0.0
2.654099788331341 2.0 0.0
2.780986322989182 2.0 0.0
2.895910470953052 2.0 0.0
3.0 1.9 0.0
3.0 1.8 0.0
3.0 1.7 0.0
3.0 1.6 0.0
3.0 1.5 0.0
3.0 1.4 0.0
3.0 1.3 0.0
3.0 1.2 0.0
3.0 1.1 0.0
3.105031513416626 1.0 0.0
3.221094637894669 1.0 0.0
3.349348047908936 1.0 0.0
3.491072094154001 1.0 0.0
3.647681638607018 1.0 0.0
3.820740106959136 1.0 0.0
4.011975186625977 1.0 0.0
4.223295996958671 1.0 0.0
4.456812096249916 1.0 0.0
4.714854728122151 1.0 0.0
5.0 0.7500000000000003 0.0
5.0 0.5000000000000012 0.0
5.0 0.2500000000000011 0.0
4.735688545609428 0.0 0.0
4.483020449703056 0.0 0.0
4.241482811970759 0.0 0.0
4.010585416339973 0.0 0.0
3.789859502173381 0.0 0.0
3.578856991431089 0.0 0.0
3.377149540461747 0.0 0.0
3.184327696210452 0.0 0.0
2.811447335671723 0.0 0.0
2.640670715826097 0.0 0.0
2.485994303895355 0.0 0.0
2.345900211668659 0.0 0.0
2.219013677010818 0.0 0.0
2.104089529046948 0.0 0.0
2.0 0.1 0.0
2.0 0.2 0.0
2.0 0.3 0.0
2.0 0.4 0.0
2.0 0.5 0.0
2.0 0.6 0.0
2.0 0.7 0.0
2.0 0.8 0.0
2.0 0.9 0.0
1.894968486583374 1.0 0.0
1.77890536210533 1.0 0.0
1.650651952091063 1.0 0.0
1.508927905845999 1.0 0.0
1.352318361392982 1.0 0.0
1.179259893040864 1.0 0.0
0.9880248133740233 1.0 0.0
0.7767040030413299 1.0 0.0
0.5431879037500846 1.0 0.0
0.2851452718778493 1.0 0.0
0.0 1.25 0.0
0.0 1.499999999999999 0.0
0.0 1.749999999999999 0.0
2.426045913985508 1.348290599604586 0.0
2.562221387987337 0.6558377602558874 0.0
1.966703786708101 1.492474555319359 0.0
3.033486484223225 0.4973568340887861 0.0
2.371610747520728 0.97814425147097 0.0
2.648098402859118 1.648016516253387 0.0
2.351901597140882 0.3519834837466129 0.0
2.694321138879857 1.061432730999581 0.0
1.441644339445862 1.496646809257773 0.0
3.554831642064292 0.501744031268764 0.0
2.720742750697982 1.350625068836981 0.0
2.282037541072919 0.639419348257894 0.0
2.813390610951134 0.7911761792959446 0.0
2.310700631729327 1.679155452525512 0.0
2.688751528716965 0.3206838402855661 0.0
2.211165393176843 1.213708510063781 0.0
0.9449004170027906 1.496357611130017 0.0
4.05509958299721 0.5036423888699835 0.0
3.025501657200047 0.7528388163714679 0.0
1.714778657098197 1.300039655550584 0.0
1.958264922640818 1.245975101752485 0.0
2.206386339371814 0.8500000000000001 0.0
3.336706349465057 0.704398544338507 0.0
4.529565928894533 0.555233644424822 0.0
0.4704340711054673 1.444766355575178 0.0
2.186983355180128 1.461437746541105 0.0
2.553715879020142 0.8859594914241276 0.0
2.782212276375736 0.5474565156445963 0.0
2.500206140967324 1.148517546040804 0.0
2.803373162317882 1.783880361314082 0.0
2.196626837682118 0.2161196386859174 0.0
1.735623536927746 1.664129737658362 0.0
3.268802735993943 0.3358439745752063 0.0
2.799454045372581 1.51553500056848 0.0
2.18762015375897 0.4992029885790829 0.0
2.813478812948685 1.18678600527921 0.0
2.400994471757771 0.7612313552289275 0.0
2.405444563947088 0.5311203927463914 0.0
2.583195945356847 1.473216966241769 0.0
3.734210872783077 0.7260959952797862 0.0
1.256500988572085 1.265010492624376 0.0
2.938353069321001 0.2909212553641365 0.0
2.061245308362322 1.709221243241415 0.0
2.182240881432738 1.001025052084926 0.0
2.830214026212788 0.9796244234047695 0.0
2.49023894829247 1.787687811117195 0.0
2.50976105170753 0.2123121888828049 0.0
1.194806886820808 1.686899295332255 0.0
3.805193113179192 0.3131007046677451 0.0
2.655039231860651 1.208917360245127 0.0
1.493530449555064 1.231198576616718 0.0
2.345622594939228 1.152685186835846 0.0
2.41380980106708 1.521513100394759 0.0
2.58979513084283 0.4863225267637531 0.0
2.135472648094309 0.7246460081196311 0.0
2.912574128751924 0.660128736186259 0.0
2.866043013605144 1.353074765380587 0.0
0.6928324624395237 1.69170809873467 0.0
4.307167537560476 0.3082919012653306 0.0
2.071506740582853 1.128535871978767 0.0
0.6831902494895832 1.302725441792086 0.0
4.316809750510417 0.6972745582079137 0.0
2.85534466702333 1.667491236848871 0.0
2.141886244104996 0.336139391754002 0.0
1.447743165823209 1.773242752731258 0.0
3.554386585610856 0.224002072703283 0.0
2.96485662756902 0.8593908564801968 0.0
3.240425509636175 0.8099760775594669 0.0
2.088410584923666 1.339747073830609 0.0
3.277530767974837 0.4939020807639749 0.0
3.534313505233912 0.7935179117986669 0.0
2.546683861402325 1.011736398479819 0.0
2.664793655038503 0.758149595673951 0.0
2.7009922066801 0.9086021996324817 0.0
1.844652141496971 1.153158997353228 0.0
2.575910747861113 1.316876286520138 0.0
3.994328863599566 0.7454319923658932 0.0
1.005671136400434 1.254568007634107 0.0
1.722192091537185 1.482888323667831 0.0
2.644751416415203 1.850904811198953 0.0
2.355248583584797 0.1490951888010467 0.0
2.31560379269905 1.25706851182614 0.0
2.129697972466254 0.5864366202645266 0.0
2.417220568140766 0.6397160301847872 0.0
2.867945749403976 1.069821281672812 0.0
3.182303046124178 0.6739667261124369 0.0
4.702774994215813 0.2953677284017739 0.0
0.2972250057841874 1.704632271598226 0.0
2.90043748182062 0.4316738443013928 0.0
2.486081387366873 0.3514585853722887 0.0
2.513918612633127 1.648541414627711 0.0
2.086778258621772 1.563111332603502 0.0
4.025359850459486 0.2638518716814435 0.0
0.9746401495405139 1.736148128318556 0.0
3.116389458098145 0.2933651166122753 0.0
1.885410353788165 1.707062521230272 0.0
2.327134732627959 1.833634230002939 0.0
2.672865267372041 0.1663657699970617 0.0
1.675899428547673 1.15999616666306 0.0
1.858973331615206 1.373382723203102 0.0
2.860266039499884 1.862282581689995 0.0
2.139733960500116 0.1377174183100045 0.0
1.257473476073173 1.479081588926576 0.0
3.731624273377778 0.5208146070195914 0.0
2.115038607594509 0.9238947313642476 0.0
0.2734661728051435 1.270630989444945 0.0
4.726533827194856 0.7293690105550548 0.0
2.699965708650878 1.465007479364728 0.0
2.298365077320068 0.5341069340550768 0.0
2.510583000486659 0.7602856732279889 0.0
3.370667741214912 0.8392397884376295 0.0
3.067541604254986 0.8806352314757129 0.0
2.90073732483139 1.443475210354718 0.0
2.264071206758208 0.9501943312745662 0.0
2.278663096491763 0.7489636980394857 0.0
1.952511813454414 1.110576661474517 0.0
2.744352083917141 0.687787375233183 0.0
1.566252941493004 1.383661493752942 0.0
2.437660520624072 0.8703573012735125 0.0
2.904826075218911 1.261819176983655 0.0
2.305967018083784 1.391390767447104 0.0
2.105729326736999 0.8145314366030645 0.0
2.428967188976762 1.236966721617647 0.0
3.060475488407204 0.1442825789852263 0.0
1.934979199332455 1.852811714602595 0.0
2.095475260770118 0.4348597444661615 0.0
2.914777085426361 1.759093454264707 0.0
2.084827330449114 0.2414252069642749 0.0
2.207128288422204 1.315477221019454 0.0
2.658751426439581 0.5773232450959589 0.0
2.612380011409894 1.114144853433198 0.0
2.897371573983894 1.569769587751228 0.0
0.5001010519014215 1.226918930408543 0.0
4.499898948098578 0.7730810695914568 0.0
2.753086810589338 1.690362801865437 0.0
2.246793053318422 0.3097947118702842 0.0
3.391580469276819 0.5673489147038103 0.0
3.035026488699165 0.6179797538177514 0.0
2.449819864663089 1.055109427275025 0.0
2.27653308928065 1.054384468582349 0.0
2.794675693196835 1.418106589018447 0.0
2.778866980525137 1.083577784614141 0.0
2.244522876020972 0.1116738824400324 0.0
2.755477123979027 1.888326117559968 0.0
2.323887028942199 0.8604475039748537 0.0
2.204900210979926 1.747483509451062 0.0
2.794853185869193 0.2526222191943996 0.0
2.320767315286541 1.530441598510029 0.0
1.550828143561484 1.606851581022188 0.0
2.796593663741882 1.288013595743853 0.0
3.436143660897262 0.3940652474171653 0.0
2.682379445750112 0.4493639922429763 0.0
3.242313228541417 0.154845696987206 0.0
1.75965289115187 1.844031320058407 0.0
1.3642341383496 1.159631408929946 0.0
1.980047380836635 1.36362624976796 0.0
2.070303834520089 1.451946835577872 0.0
2.55866460451515 1.229901920133861 0.0
4.26844523535139 0.499131154814159 0.0
0.7315547646486098 1.500868845185841 0.0
2.716116351489881 1.570657861970705 0.0
2.283245236086922 0.4299499540566049 0.0
4.50573905238033 0.204273435313806 0.0
0.4942609476196695 1.795726564686194 0.0
3.605070352001925 0.644396355247622 0.0
3.171946621948212 0.9019117497969773 0.0
3.40309695214227 0.1789624633199048 0.0
1.59690304785773 1.821037536680094 0.0
4.776800700354217 0.5074282293075529 0.0
0.2231992996457826 1.492571770692447 0.0
1.293020597407515 1.839015256431498 0.0
3.706979402592485 0.1609847435685022 0.0
1.398281395597716 1.351857389185529 0.0
2.880181082677912 0.1378504756446906 0.0
2.119200639021148 1.861833157788504 0.0
2.408646939494887 0.2452196658480275 0.0
2.591353060505113 1.754780334151973 0.0
1.146570081566377 1.160946826906423 0.0
3.853429918433624 0.8390531730935771 0.0
2.920846657438631 1.149071660619678 0.0
2.101132283911678 1.226382957654413 0.0
2.903672483971366 0.7774662795474147 0.0
2.516386521935266 0.571665255016536 0.0
2.475412447847437 1.444413760085193 0.0
2.903041575637174 0.5510905120278109 0.0
3.666476299189054 0.8553176740217776 0.0
1.558137053653031 1.119389262041809 0.0
3.867595456948903 0.1475874639835382 0.0
1.132404543051097 1.852412536016462 0.0
2.635017655944937 0.9730281566682446 0.0
2.436667490139274 1.901171080200935 0.0
2.563332509860726 0.09882891979906516 0.0
2.091598337090247 1.040423151014485 0.0
0.8316881289508771 1.172977685150089 0.0
4.168311871049123 0.827022314849911 0.0
3.648565743761548 0.3681286963687066 0.0
1.355037313653319 1.636865536133179 0.0
2.58412781071005 1.576586299624529 0.0
2.41587218928995 0.4234137003754711 0.0
2.083716468691946 0.6634832154935376 0.0
1.843942294678346 1.256771801786488 0.0
[...]
POINT_DATA 380

VECTORS Velocity float
0.0000000000000000 0.0000000000000000 0.0
0.0000000000000000 0.0000000000000000 0.0
0.0000000000000000 0.0000000000000000 0.0
0.0000000000000000 0.0000000000000000 0.0
0.0000000000000000 0.0000000000000000 0.0
0.9200579148420402 -0.1171230927627663 0.0
0.0000000000000000 0.0000000000000000 0.0
0.0000000000000000 0.0000000000000000 0.0
0.0000000000000000 0.0000000000000000 0.0
0.0000000000000000 0.0000000000000000 0.0
0.0000000000000000 0.0000000000000000 0.0
0.0000000000000000 0.0000000000000000 0.0
0.0000000000000000 0.0000000000000000 0.0
0.0000000000000000 0.0000000000000000 0.0
0.0000000000000000 0.0000000000000000 0.0
0.0000000000000000 0.0000000000000000 0.0
0.0000000000000000 0.0000000000000000 0.0
0.0000000000000000 0.0000000000000000 0.0
0.0000000000000000 0.0000000000000000 0.0
0.0000000000000000 0.0000000000000000 0.0
0.0000000000000000 0.0000000000000000 0.0
0.0000000000000000 0.0000000000000000 0.0
0.0000000000000000 0.0000000000000000 0.0
0.0000000000000000 0.0000000000000000 0.0
0.0000000000000000 0.0000000000000000 0.0
0.0000000000000000 0.0000000000000000 0.0
0.0000000000000000 0.0000000000000000 0.0
0.0000000000000000 0.0000000000000000 0.0
0.0000000000000000 0.0000000000000000 0.0
0.0000000000000000 0.0000000000000000 0.0
0.0000000000000000 0.0000000000000000 0.0
0.0000000000000000 0.0000000000000000 0.0
0.0000000000000000 0.0000000000000000 0.0
0.0000000000000000 0.0000000000000000 0.0
0.0000000000000000 0.0000000000000000 0.0
0.0000000000000000 0.0000000000000000 0.0
0.0000000000000000 0.0000000000000000 0.0
0.0000000000000000 0.0000000000000000 0.0
0.0000000000000000 0.0000000000000000 0.0
0.0000000000000000 0.0000000000000000 0.0
0.0000000000000000 0.0000000000000000 0.0
0.0000000000000000 0.0000000000000000 0.0
0.0000000000000000 0.0000000000000000 0.0
1.1480362697143049 0.3008275455856314 0.0
0.8298676202258685 0.0120967227296463 0.0
1.1115822893358445 -0.2588365456190782 0.0
0.0000000000000000 0.0000000000000000 0.0
0.0000000000000000 0.0000000000000000 0.0
0.0000000000000000 0.0000000000000000 0.0
0.0000000000000000 0.0000000000000000 0.0
0.0000000000000000 0.0000000000000000 0.0
0.0000000000000000 0.0000000000000000 0.0
0.0000000000000000 0.0000000000000000 0.0
0.0000000000000000 0.0000000000000000 0.0
0.0000000000000000 0.0000000000000000 0.0
0.0000000000000000 0.0000000000000000 0.0
0.0000000000000000 0.0000000000000000 0.0
0.0000000000000000 0.0000000000000000 0.0
0.0000000000000000 0.0000000000000000 0.0
0.0000000000000000 0.0000000000000000 0.0
0.0000000000000000 0.0000000000000000 0.0
0.0000000000000000 0.0000000000000000 0.0
0.0000000000000000 0.0000000000000000 0.0
0.0000000000000000 0.0000000000000000 0.0
0.0000000000000000 0.0000000000000000 0.0
0.0000000000000000 0.0000000000000000 0.0
0.0000000000000000 0.0000000000000000 0.0
0.0000000000000000 0.0000000000000000 0.0
0.0000000000000000 0.0000000000000000 0.0
0.0000000000000000 0.0000000000000000 0.0
0.0000000000000000 0.0000000000000000 0.0
0.0000000000000000 0.0000000000000000 0.0
0.0000000000000000 0.0000000000000000 0.0
0.0000000000000000 0.0000000000000000 0.0
0.0000000000000000 0.0000000000000000 0.0
0.0000000000000000 0.0000000000000000 0.0
0.0000000000000000 0.0000000000000000 0.0
0.0000000000000000 0.0000000000000000 0.0
0.0000000000000000 0.0000000000000000 0.0
1.0000000000000000 0.0000000000000000 0.0
1.0000000000000000 0.0000000000000000 0.0
1.0000000000000000 0.0000000000000000 0.0
0.6630400232506811 -0.5095752076366427 0.0
0.6133857255002697 -0.5215247422207664 0.0
1.1175972353994037 -0.2456789903618760 0.0
1.0751836189232955 -0.2551763792681112 0.0
0.4708305496453061 -0.8032060174940491 0.0
0.4677650319065205 -0.1573335851403807 0.0
0.4427941296004747 -0.1681524223262114 0.0
0.4319126463997973 -0.8422103087364701 0.0
1.2964240125486168 -0.0719979703178122 0.0
1.2979805371609343 -0.0729097928078872 0.0
0.2977143088088220 -0.4529110840087681 0.0
0.2934975473976347 -0.4635909405158388 0.0
0.9050753393482539 -0.7980242126497216 0.0
0.7952440189486499 -0.1656237807716249 0.0
0.7857354749097117 -0.1697685617214926 0.0
0.8953560288033324 -0.7236018865715540 0.0
1.4257005959932214 -0.0110859496635435 0.0
1.4256998178961995 -0.0039755668166946 0.0
1.3787866067410188 -0.4311967325543408 0.0
1.3301641915075810 -0.1732065007328659 0.0
1.3975107636489084 -0.3968722521124417 0.0
0.1511363507313825 -0.9122699903459445 0.0
1.3597331389402272 -0.1334458934183509 0.0
1.4468172741450278 0.0091860344703230 0.0
1.4280579455148394 0.0196325866188658 0.0
0.9153197146482628 -0.3685297758236549 0.0
0.5392888288880969 -0.7245556802600631 0.0
0.8570920390016969 -0.3587522721750406 0.0
0.5219137579941441 -0.7082830806888684 0.0
0.3829025247190946 -0.0152431542440135 0.0
0.3516207975511877 -0.0250761550179402 0.0
1.1973821544771248 -0.0550349862409787 0.0
1.1953150299641189 -0.0568457645446722 0.0
0.2654891839713305 -0.2451805347864485 0.0
0.2235855586858928 -0.2439007879277159 0.0
0.0624026772584119 -0.7297606312962641 0.0
0.4191534631614013 -0.6138743325243785 0.0
0.4579433920437235 -0.3628880275204048 0.0
0.4900856700293296 -0.3402324105659658 0.0
1.3318214393133381 -0.0680979024090523 0.0
1.2776729670616558 -0.0954961325001736 0.0
0.9629053958723939 -0.1246136834286724 0.0
0.9794098951111122 -0.1118374675766947 0.0
0.4858738545877621 -1.2494484520834903 0.0
0.4993234838444651 -1.2855564814785279 0.0
0.5846786936565911 -0.0169498839306576 0.0
0.5663272694540168 -0.0231122339098288 0.0
1.2732440278670818 0.0324027114007346 0.0
1.2777308866847243 0.0337551075716406 0.0
0.3642796371515348 -0.6416377400062937 0.0
1.2892273294277212 -0.0454988282571374 0.0
0.6684849530497509 -0.7367801717094506 0.0
0.6506563713253682 -0.3240564044362355 0.0
0.6577160745188440 -0.3438364762853496 0.0
-0.0846457457776286 -0.5249401892467793 0.0
1.1094113769581881 -0.5055874379040409 0.0
0.0953354071583145 -0.3806050314516546 0.0
1.3286021961278078 0.0220401172113868 0.0
1.3327095125515205 0.0196208323043518 0.0
1.3647161327059625 -1.0026749290112917 0.0
1.3540074791602843 -0.0501930201091562 0.0
1.3513102364555223 -0.0537078384783330 0.0
0.3136813077850063 -0.0715205210028629 0.0
0.2807315668293320 -0.0855111191618037 0.0
0.9204602409827874 -0.0141657863645125 0.0
0.9257760998947298 -0.0191973792140390 0.0
1.4968347951475109 -0.8119512439222867 0.0
1.3685101352726006 -0.1621689066363044 0.0
1.0750332672650418 -0.4741591242915502 0.0
1.2332585098044115 -0.1018204871591051 0.0
1.2974580453311810 -0.0783942763518369 0.0
0.5065304709239018 -0.7549137002873233 0.0
0.7017829300904656 -0.6348180180540099 0.0
0.6144883294380783 -0.8643101864691096 0.0
1.4486051646932794 -0.1353955624831377 0.0
0.4769547525454361 -0.5188155599459154 0.0
1.0742368042000718 -0.0357079643270108 0.0
1.0792749395830850 -0.0316830662992531 0.0
1.2488709283830084 -0.1054355472169369 0.0
0.3304955770177583 -0.0330512750159395 0.0
0.3118756231359780 -0.0362583996253631 0.0
0.7592918456440982 -0.6215443305387148 0.0
0.1059557513257491 -0.2355296490826319 0.0
0.4394101442068598 -0.4700675538907198 0.0
0.0158730173660287 -1.1266574630013697 0.0
1.3071437954706540 -0.2418418576433298 0.0
1.1617316408780138 -0.1603464519340125 0.0
1.1632911080645592 -0.1523368435171203 0.0
0.9556741929498114 -0.2575258882665118 0.0
0.5590197504578169 -0.1778563443356530 0.0
0.5794405809863610 -0.1658037080238639 0.0
0.9922986606663042 -0.2500813347684296 0.0
1.0694830137014408 -0.0032739931281945 0.0
1.0654824320515595 -0.0051011516690356 0.0
1.0922350037869790 -0.0808861424819987 0.0
1.1023517739198105 -0.0768187104356664 0.0
0.4846027375752401 -0.0478957679335206 0.0
0.4744693418282883 -0.0493701589949576 0.0
1.0382352075965762 -0.0771932127933836 0.0
1.2136390249799436 -0.2269833439204210 0.0
0.3467955910668938 0.0441365355278766 0.0
0.3156230660764732 0.0359525094794684 0.0
1.3106331548129733 -0.0662076276823320 0.0
1.3176373400887551 -0.0789647860701652 0.0
-0.1547688514292000 -0.9740027789958342 0.0
1.1101467334031947 0.1780536407112490 0.0
1.1156613375943329 0.1730380348881191 0.0
0.3501786670525806 -0.3240121696471704 0.0
0.3268610207731253 -0.3251498170250316 0.0
0.5319710324254842 -0.6316471654210389 0.0
1.0754976909937932 -0.0808595372197164 0.0
1.1860393832982044 -0.3162517780088104 0.0
0.1443089656204042 -0.1825004221876347 0.0
0.3590776456211612 -0.9267519027804523 0.0
0.2435247904142759 -0.6197179246172312 0.0
1.2247645985921678 -0.1775169361444865 0.0
0.8250307596541888 -0.5690439860500356 0.0
1.2955233141141527 -0.0880447160428625 0.0
0.4631336124985920 -0.7148035390074288 0.0
-0.0674136410188584 -0.3798294936019065 0.0
0.7877456649823211 -0.4560894321288588 0.0
-0.0904315031461843 -0.5249098126374497 0.0
0.6042189781748126 -0.6426647137751218 0.0
0.6198074512121529 -0.0202499312710568 0.0
0.6202191469941586 -0.0163747510956522 0.0
0.2056603891798054 -0.1063014519660638 0.0
0.3065722176767158 -0.0016802968940403 0.0
0.2747103250680140 -0.0086605181298785 0.0
0.9426764863762721 -0.5850591954939383 0.0
0.7284681235199223 -0.4409914981437693 0.0
0.4546323713602513 -0.7343353909251544 0.0
0.2095626516709312 -0.0977551012821494 0.0
0.9312929228482264 0.1115994715522547 0.0
0.9180976906715983 0.0927301397550494 0.0
0.3987071891296096 -0.1071986029807046 0.0
0.3722298482346314 -0.1188019646190185 0.0
1.2901444100217312 -0.1032414656809435 0.0
1.1905334762980238 -0.3211602471920910 0.0
0.5260194762857674 -0.7661945004207760 0.0
0.5865894868633130 -0.9052886252121176 0.0
0.2290702738216097 -0.3221332713976523 0.0
0.2963834384873672 -0.9464492680906932 0.0
0.2455145999068371 -0.0274903180811121 0.0
0.2657366776162218 -0.0253015382709331 0.0
0.3775002760428744 -0.7520286634022929 0.0
0.8626696163506274 -0.1337871855226067 0.0
0.8484029335305578 -0.1394396765902742 0.0
0.7769574580735706 -0.3094985054612677 0.0
1.2708053763677221 -0.0405997235386395 0.0
0.1686923991020081 -0.4918771408408981 0.0
1.2689751893584158 -0.0406280221985726 0.0
0.7662497698512037 -0.3114280521651669 0.0
0.6878796369914048 -0.0237718713103315 0.0
0.6842507190832513 -0.0256478450931102 0.0
0.9980083924910764 -0.0389662114862712 0.0
1.1796489070680591 -0.3435827263548233 0.0
1.0621125649868484 -0.3393876903299487 0.0
0.4629489638667448 -0.6229278175716897 0.0
1.3510266953614474 -0.0246732630995022 0.0
1.3523019606516700 -0.0220569493484516 0.0
0.3751785195040563 -0.2001363063932062 0.0
0.3480518756588282 -0.2185967082017477 0.0
0.8663567809307346 -0.1022399308815747 0.0
0.8700191999860389 -0.1133153494613794 0.0
1.3059655324251838 -0.0921800492856652 0.0
0.8689783712687236 -0.1530406429380060 0.0
0.8019149399009292 -0.0703484322908466 0.0
0.8040977056738459 -0.0752029993760992 0.0
1.2104554800231893 0.0212701781278065 0.0
1.1842177815407433 0.0148797307109958 0.0
0.7789505174745017 0.0342523352343098 0.0
0.7858475040686950 0.0324050687853216 0.0
1.3071705114465395 -0.0778338882301633 0.0
0.5138484595394012 -0.0536792940914152 0.0
0.5183692317277281 -0.0509437239777875 0.0
0.5099629523287479 -0.1155324967651008 0.0
0.5321679399267901 -0.1089772132543695 0.0
0.8326060395008127 0.0475332140928023 0.0
0.8328207828007629 0.0704777778254704 0.0
-0.2534167601359044 -0.5454362029983695 0.0
1.1453493120647384 -0.6737753089209197 0.0
1.1438379494004147 -0.7376216905960348 0.0
0.5618864144556390 -0.4243098187546621 0.0
0.6028006713395124 -0.3741814757513641 0.0
1.0177473600012530 -0.3622099169350634 0.0
0.7787189428400378 -0.0021639974999138 0.0
0.8119238915131153 -0.0665696709273833 0.0
0.6886419777436160 -0.1021580641689372 0.0
0.6860054782242886 -0.1012909731217423 0.0
0.5208637138393507 -0.8151568496927728 0.0
0.2688322228359746 -0.0341705019874809 0.0
0.2589974983459782 -0.0354286873104166 0.0
0.7107450783649036 -1.3465155375438249 0.0
0.7961463903447752 -0.0832351002391759 0.0
0.7939238261534275 -0.0847184694371700 0.0
1.2907214820442057 -0.0826670068784139 0.0
1.2870326793733422 -0.0799750320155695 0.0
0.4979910651672820 -0.2350191355717903 0.0
0.4664765266555290 -0.2459283141191363 0.0
-0.0569968543571828 -0.2495449704558960 0.0
1.3055453885591031 -0.2447987028047899 0.0
0.7422785541669588 -1.4686300528548693 0.0
0.2003221495633395 -0.3587681031224340 0.0
0.4077180509094676 -0.4393339796767373 0.0
0.9767344389479108 -1.0680449065106452 0.0
0.7293541694007093 -0.9468883912794376 0.0
1.3618839762309183 -0.0760516522733633 0.0
1.3704892828093405 -0.0901253163142744 0.0
0.5002683664137035 -0.9363092356010805 0.0
0.8898468237460545 -0.2124833434325873 0.0
0.8709421421157809 -0.2027274137534104 0.0
0.7189883946992907 -0.1244977093669002 0.0
0.7042650370413908 -0.1323288752316140 0.0
1.3400776227658919 -0.0831023169011155 0.0
0.7547915240116992 -0.7689409352375534 0.0
0.3063939044943608 -0.7442496400249314 0.0
1.0658491796350129 -0.1745860455109787 0.0
1.3860603859301373 -0.0288647421613705 0.0
1.3940327054073600 -0.0304057985763938 0.0
1.0806646472350256 -0.1600408107601596 0.0
0.2963221957556162 -0.0009478285062090 0.0
0.3104785676848069 0.0022267926926244 0.0
0.6933776951780311 0.0753665707752427 0.0
1.1492656821222849 -0.1388784222830774 0.0
1.3614707466188156 -0.0631244158622202 0.0
0.3803194131130138 -0.5472379283488286 0.0
0.3279039825881784 -0.1455435653232113 0.0
0.2927668264358690 -0.1579579039857379 0.0
0.4636711828123586 -0.0360367638736091 0.0
0.4363399497148880 -0.0444655103632756 0.0
0.3751408324279478 -0.4320282755203046 0.0
-0.1392803868083813 -0.2321411378495152 0.0
0.6821756291778405 -0.5708004147067918 0.0
0.6544371242891026 0.0208012536833374 0.0
0.6469451437001792 0.0145870175062272 0.0
1.3810745288557920 0.0000631572993405 0.0
1.3778344553271376 -0.0023689469327710 0.0
0.7352772662665644 -0.8695405916155297 0.0
1.1855831366302916 -0.2225103246114800 0.0
0.6719609520383029 -0.0947971072545285 0.0
0.2823642767877931 -0.0397708411350576 0.0
0.2434709609075581 -0.0449661583222060 0.0
0.3555345103260157 -0.5389770377901393 0.0
0.1288173404069493 -0.1425850718637376 0.0
0.5577322147858023 -0.5535151581449537 0.0
1.1717688821269396 -0.1321355982766947 0.0
0.5815835407854972 -0.2810932981970779 0.0
0.5571306856402587 -0.3011418138636638 0.0
0.5015554488854054 -0.7562020345319063 0.0
0.7927970929045521 0.0755058320760145 0.0
0.7950012162558263 0.0759583328045887 0.0
0.6089102636509057 -0.7579224148715935 0.0
0.0999468082577428 -0.6882437423174452 0.0
0.1369356548702901 -0.4679533880102711 0.0
0.0367661553414428 -0.1392386176435602 0.0
0.8697611953414174 0.0499497058128160 0.0
0.8500109097883684 0.0667358321346019 0.0
0.8612186941123995 -0.0502362611562326 0.0
0.8470271185823544 -0.0613588120663829 0.0
0.2653319041935848 -0.6083781580423457 0.0
1.2080630379674508 -0.2663196370627269 0.0
0.6032628373187551 -0.6459136105994133 0.0
1.0175289021961611 -0.6184650674277240 0.0
0.8178705900951889 0.0561612779587742 0.0
1.3748544493572481 -0.0445064819065866 0.0
1.3796856883233057 -0.0446163662476919 0.0
1.0583743523269764 -1.1429058206562641 0.0
0.5692892693241181 -0.7435872940682464 0.0
1.4750839582241129 -0.2702521915374412 0.0
0.5647216685179168 -0.8160298270916285 0.0
-0.4524512229750523 -1.0097124644683011 0.0
1.3699693004020406 -0.2335110715507293 0.0
0.3100579386452254 -1.1755163034229548 0.0
1.2649006995584673 -0.1655939165214218 0.0
0.6044569895291725 -0.0158130670354635 0.0
1.4126806120877529 -0.0074873066633050 0.0
1.4038247089281690 -0.0159170509573399 0.0
0.1977582365896924 0.0307538001781561 0.0
0.2223167242869169 0.0342306606636439 0.0
0.6947071118666381 0.0559179846713396 0.0
0.6375585234426329 -0.1293575036353270 0.0
0.1420542189793426 0.0078414332327972 0.0
0.1602781796677833 0.0104266375268695 0.0
0.6840200523612237 -0.0564206011439126 0.0
0.5221769139270861 -0.5530150409123176 0.0
0.6806223598841460 -0.0209202765848418 0.0
0.6844210236294405 -0.0221403475845344 0.0
0.6629167035275975 -0.2241565662527380 0.0
0.6893235059133266 -0.2085921832896777 0.0
0.5164220713529538 -0.4624556800914548 0.0
0.4063022687321154 -0.2779170948347471 0.0
0.4353632251846564 -0.2750599298268216 0.0
0.3191379039030284 0.0330396293001752 0.0
0.2862431601573504 0.0294394774993326 0.0
1.5994809476700029 -0.6686387154252966 0.0
0.9568559754624136 -0.4976034147653308 0.0
0.6941756976489113 -0.4077231135879125 0.0
1.2845089045065705 -0.7346233264772835 0.0
