# vtk DataFile Version 3.0
LucasCarvalhoTCC Results
ASCII

DATASET POLYDATA

POINTS 417 float
0.8749999999996735 0.0 0.0
0.9374999999998368 0.0 0.0
0.8124999999995102 0.0 0.0
0.6874999999991838 0.0 0.0
0.5624999999988572 0.0 0.0
0.4374999999988753 0.0 0.0
0.3124999999992381 0.0 0.0
0.1874999999995994 0.0 0.0
0.0624999999998897 0.0 0.0
0.0 0.0 0.0
0.749999999999347 0.0 0.0
0.6249999999990205 0.0 0.0
0.499999999998694 0.0 0.0
0.3749999999990567 0.0 0.0
0.2499999999994194 0.0 0.0
0.1249999999997794 0.0 0.0
1.0 0.0 0.0
1.0 1.0 0.0
1.0 0.1249999999997794 0.0
1.0 0.2499999999994194 0.0
1.0 0.3749999999990567 0.0
1.0 0.499999999998694 0.0
1.0 0.6249999999990205 0.0
1.0 0.749999999999347 0.0
1.0 0.8749999999996735 0.0
1.0 0.0624999999998897 0.0
1.0 0.1874999999995994 0.0
1.0 0.3124999999992381 0.0
1.0 0.4374999999988753 0.0
1.0 0.5624999999988572 0.0
1.0 0.6874999999991838 0.0
1.0 0.8124999999995102 0.0
1.0 0.9374999999998368 0.0
-0.0 1.0 0.0
0.8750000000003563 1.0 0.0
0.7500000000009891 1.0 0.0
0.6250000000015759 1.0 0.0
0.5000000000020591 1.0 0.0
0.3750000000015444 1.0 0.0
0.2500000000010296 1.0 0.0
0.1250000000005148 1.0 0.0
0.9375000000001781 1.0 0.0
0.8125000000006727 1.0 0.0
0.6875000000012825 1.0 0.0
0.5625000000018174 1.0 0.0
0.4375000000018018 1.0 0.0
0.312500000001287 1.0 0.0
0.1875000000007722 1.0 0.0
0.0625000000002574 1.0 0.0
0.0 0.8750000000003563 0.0
0.0 0.7500000000009891 0.0
0.0 0.6250000000015759 0.0
0.0 0.5000000000020591 0.0
0.0 0.3750000000015444 0.0
0.0 0.2500000000010296 0.0
0.0 0.1250000000005148 0.0
0.0 0.9375000000001781 0.0
0.0 0.8125000000006727 0.0
0.0 0.6875000000012825 0.0
0.0 0.5625000000018174 0.0
0.0 0.4375000000018018 0.0
0.0 0.312500000001287 0.0
0.0 0.1875000000007722 0.0
0.0 0.0625000000002574 0.0
0.5647364308662526 0.446732401698651 0.0
0.2354892605327167 0.5800652382235558 0.0
0.287250702605353 0.3933735249345629 0.0
0.1177446302663583 0.5400326191128075 0.0
0.1436253513026765 0.1966867624672815 0.0
0.2613699815690348 0.4867193815790594 0.0
0.1306849907845174 0.3683596907900445 0.0
0.4259935667358028 0.420052963316607 0.0
0.5323682154341558 0.7233662008493256 0.0
0.3677446302673879 0.7900326191117779 0.0
0.3968690985015953 0.6050427912141925 0.0
0.5323682154324733 0.2233662008493255 0.0
0.3379967833676111 0.2100264816583035 0.0
0.183872315133694 0.7700163095563834 0.0
0.7823682154331263 0.4733662008486725 0.0
0.7661841077170577 0.7366831004243363 0.0
0.7661841077162367 0.2366831004243725 0.0
0.1766169453995375 0.5600489286681817 0.0
0.1242148105254379 0.454196154951426 0.0
0.1960274861767761 0.4275395361845519 0.0
0.2484296210508757 0.5333923099013076 0.0
0.1863222157881568 0.4937942324263668 0.0
0.05887231513317917 0.5200163095574333 0.0
0.0653424953922587 0.3091798453955371 0.0
0.06210740526271893 0.4145980774764852 0.0
0.07181267565133824 0.09834338123364073 0.0
0.1371551710435969 0.282523226628663 0.0
0.06857758552179846 0.2037616133145889 0.0
0.2154380269540147 0.2950301437009222 0.0
0.2743103420871938 0.4400464532568111 0.0
0.2057327565653954 0.361284839942737 0.0
0.3566221346705779 0.406713244125585 0.0
0.411431332618699 0.5125478772653997 0.0
0.3291195400353151 0.5458810863966259 0.0
0.3428708373529465 0.4762971652611054 0.0
0.4953649988010277 0.433392682507629 0.0
0.5485523231502042 0.5850493012739884 0.0
0.4646186569678755 0.664204496031759 0.0
0.4799918278844516 0.548798589269694 0.0
0.5161841077181075 0.8616831004246628 0.0
0.4338723151347235 0.895016309555889 0.0
0.3823068643844916 0.6975377051629852 0.0
0.4492454860512995 0.779610402793824 0.0
0.3016169454000523 0.6850489286676669 0.0
0.3153682427176836 0.6154650075321464 0.0
0.3819951750517069 0.3150397224874552 0.0
0.4351824994000422 0.2166963412538145 0.0
0.548552323149363 0.3350493012739882 0.0
0.465273749100535 0.3250445118807217 0.0
0.2408110673351438 0.2033566220627925 0.0
0.2987166010028608 0.3050349330941887 0.0
0.2939983916835152 0.1050132408291517 0.0
0.1829055336674616 0.1016783110313962 0.0
0.5161841077155837 0.1116831004246628 0.0
0.4050912496995495 0.1083481706269072 0.0
0.2169361575673618 0.8850081547781917 0.0
0.2758084727005409 0.7800244643340807 0.0
0.3254042363510427 0.8900122321670404 0.0
0.09193615756684699 0.7600081547786863 0.0
0.1084680787836809 0.880004077389274 0.0
0.1508084727000262 0.6550244643345955 0.0
0.07540423635001309 0.6400122321680856 0.0
0.2262127090500392 0.6700366965011312 0.0
0.6492761615756067 0.7300246506368309 0.0
0.7580920538590235 0.8683415502121681 0.0
0.6371380807885914 0.8650123253184154 0.0
0.6735523231496894 0.4600493012736618 0.0
0.7742761615750919 0.6050246506365045 0.0
0.661414242362648 0.5950369759552463 0.0
0.8911841077165632 0.4866831004236832 0.0
0.8830920538585288 0.7433415502118417 0.0
0.887138080787546 0.6150123253177625 0.0
0.8790460269294426 0.871670775105921 0.0
0.649276161574355 0.230024650636849 0.0
0.7742761615746815 0.3550246506365225 0.0
0.6614142423620222 0.3450369759552553 0.0
0.7580920538577918 0.1183415502121862 0.0
0.6371380807866877 0.1150123253184245 0.0
0.8830920538581184 0.2433415502118959 0.0
0.879046026928896 0.1216707751059828 0.0
0.8871380807873408 0.3650123253177896 0.0
0.2060531029661271 0.5700570834458687 0.0
0.1814695805938472 0.5269215805472742 0.0
0.2173759184195163 0.5135932711638371 0.0
0.2419594407917962 0.5567287740624317 0.0
0.2117145106928217 0.5418251773048528 0.0
0.1471807878329479 0.5500407738904947 0.0
0.1209797203958981 0.4971143870321167 0.0
0.1552685131567973 0.4739951936888964 0.0
0.1512246504948726 0.5120179837896954 0.0
0.1274499006549776 0.4112779228707353 0.0
0.1633562384806467 0.3979496134872982 0.0
0.1911748509824664 0.4606668843054593 0.0
0.159312375818722 0.4359724035880972 0.0
0.2286987338729055 0.4571294588818057 0.0
0.2548998013099553 0.5100558457401835 0.0
0.2230373261462109 0.4853613650228214 0.0
0.08830847269976874 0.5300244643351204 0.0
0.06048986019794905 0.4673071935169593 0.0
0.09316110789407842 0.4343971162139556 0.0
0.09073479029692358 0.482210790274538 0.0
0.02943615756658959 0.5100081547797461 0.0
0.03105370263135946 0.3947990387390148 0.0
0.03024493009897453 0.4524035967593805 0.0
0.03267124769612935 0.2795899226982834 0.0
0.06372495032748882 0.3618889614360111 0.0
0.03186247516374441 0.337194480718649 0.0
0.09801374308838805 0.3387697680927908 0.0
0.09558742549123322 0.3865834421533731 0.0
0.06696004045702858 0.256470729355063 0.0
0.1028663782826977 0.2431424199716259 0.0
0.1339200809140572 0.3254414587093538 0.0
0.1004400606855429 0.2909560940322084 0.0
0.03428879276089923 0.1643808066575518 0.0
0.03348002022851429 0.2219853646779176 0.0
0.03590633782566912 0.04917169061682036 0.0
0.07019513058656834 0.1510524972741148 0.0
0.03509756529328417 0.1067762486371861 0.0
0.1077190134770074 0.1475150718504611 0.0
0.1403902611731367 0.2396049945479723 0.0
0.1052926958798525 0.1953287459110435 0.0
0.2008801213710857 0.3944121880636445 0.0
0.2400215493262946 0.4006656465997741 0.0
0.2678401618281143 0.4633829174179352 0.0
0.2343601415996001 0.4288975527407898 0.0
0.1714439638044962 0.3219040332857001 0.0
0.1674001011425715 0.3599268233864991 0.0
0.1795316891283456 0.2458584530841018 0.0
0.2105853917597051 0.3281574918218296 0.0
0.1754878264664209 0.2838812431849009 0.0
0.2513443647796839 0.3442018343177425 0.0
0.2807805223462734 0.416709989095687 0.0
0.2456829570529892 0.3724337404587583 0.0
0.3219364186379655 0.4000433845300739 0.0
0.3497464860117622 0.4415052046933452 0.0
0.3085905897200701 0.4581718092589582 0.0
0.3152635041790178 0.4291075968945161 0.0
0.3913078507031904 0.413383103721096 0.0
0.4187124496772509 0.4663004202910034 0.0
0.3771510849858227 0.4944225212632526 0.0
0.3842294678445065 0.4539028124921743 0.0
0.4041502155601472 0.5587953342397961 0.0
0.3629943192684552 0.5754619388054092 0.0
0.3359951886941308 0.5110891258288657 0.0
0.370072702127139 0.5349422300343308 0.0
0.2952447608021749 0.5163002339878426 0.0
0.3019176752611226 0.4872360216234005 0.0
0.4606792827684152 0.426722822912118 0.0
0.4876784133427396 0.4910956358886616 0.0
0.4457115802515753 0.5306732332675469 0.0
0.4531954315099953 0.4786980280898325 0.0
0.5300507148336402 0.44006254210314 0.0
0.5566443770082283 0.5158908514863196 0.0
0.5142720755173279 0.5669239452718412 0.0
0.522161395175484 0.5034932436874906 0.0
0.54046026929218 0.654207751061657 0.0
0.4984934362010157 0.6937853484405423 0.0
0.4723052424261636 0.6065015426507265 0.0
0.5063827558591718 0.6303546468561917 0.0
0.4307438777347354 0.6346236436229757 0.0
0.4382277289931554 0.5826484384452614 0.0
0.4569320715095875 0.7219074494127915 0.0
0.4157761752178956 0.7385740539784046 0.0
0.3895879814430434 0.6512902481885888 0.0
0.4232600264763154 0.6865988488006901 0.0
0.5242761615761317 0.7925246506369942 0.0
0.4827147968847035 0.8206467516092434 0.0
0.4906041165428595 0.7572160500248929 0.0
0.5080920538600833 0.9308415502123314 0.0
0.4669361575683914 0.9475081547779445 0.0
0.4415589005930115 0.8373133561748565 0.0
0.4748254772265474 0.884077453193594 0.0
0.4008084727010557 0.8425244643338334 0.0
0.3750257473259397 0.7437851621373816 0.0
0.4082923239594756 0.7905492591561191 0.0
0.3222438913764993 0.5806730469643862 0.0
0.2818989318842797 0.574428658716727 0.0
0.2885718463432273 0.5453644463522848 0.0
0.3488375535510876 0.6565013563475658 0.0
0.3559159364097714 0.6159816475764875 0.0
0.3346807878337201 0.7375407738897224 0.0
0.308492594058868 0.6502569680999066 0.0
0.3417591706924039 0.6970210651186441 0.0
0.2685531029663845 0.6325570834456113 0.0
0.2752260174253321 0.6034928710811692 0.0
0.4803193739507813 0.3792185971941754 0.0
0.506913036124949 0.3300469065773549 0.0
0.5566443770078078 0.3908908514863196 0.0
0.5184818754792946 0.3850547243402475 0.0
0.4039943708937548 0.3675463429020311 0.0
0.4236344620761209 0.3200421171840885 0.0
0.4421568724222681 0.3733824700481033 0.0
0.359995979209659 0.2625331020728794 0.0
0.3865896413838267 0.213361411456059 0.0
0.4502281242502886 0.2708704265672681 0.0
0.4051120517299738 0.2667017643200738 0.0
[...]
POINT_DATA 417

SCALARS Temperature float 1

LOOKUP_TABLE Temperature
0.0
0.0
0.0
0.0
0.0
0.0
0.0
0.0
0.0
0.0
0.0
0.0
0.0
0.0
0.0
0.0
0.03863508261607527
1.0
0.13181110563559578
0.253017446315111
0.3768386360825533
0.5012244217825839
0.6258188447144142
0.7505084652647988
0.875244493813533
0.0763968093192915
0.19173373749167621
0.31481066658713036
0.4389933758344877
0.5635050579257441
0.6881555854484748
0.8128726466331424
0.9376211041791654
1.0
1.0
1.0
1.0
1.0
1.0
1.0
1.0
1.0
1.0
1.0
1.0
1.0
1.0
1.0
1.0
0.8750738379943331
0.7501388454688741
0.625186430926104
0.50020875041802
0.3751994671967589
0.2501572754735814
0.12508684249750388
0.9375374791460929
0.8126079889265858
0.6876653367073314
0.5627011739315981
0.43770824719569623
0.31268236080141615
0.18762501186184719
0.06254448078834715
0.4473686192284918
0.5803136307267133
0.39367182217781166
0.5402506316577479
0.19683334246404577
0.48700164945674335
0.36857583649644426
0.42048721596306404
0.7236952219457808
0.7902166046878983
0.6053769594158679
0.22389002845265477
0.21027555753538774
0.7701631988127704
0.4744131257150023
0.7371459021129336
0.2381649125572342
0.5602797210803845
0.4544213434863611
0.4277887363885353
0.5336594693949213
0.49403891180482884
0.5202268220027194
0.30936519690892866
0.41480797978151385
0.09841471597014202
0.28271305926701557
0.20389928855771755
0.29525515844109157
0.44033929629944757
0.3615278781554514
0.4070714134490053
0.5129419308866442
0.5461937342792494
0.47663853966017977
0.43391995225224905
0.5855421169495346
0.6645456722169341
0.5492450471173596
0.8618454987233197
0.8951227977404473
0.6978000687877518
0.7798356939754724
0.6852800257562832
0.6157401524484086
0.31540200725200396
0.21705055595163078
0.33568446780359334
0.32552193721293654
0.20354105321269506
0.3053156590663287
0.10513298454705894
0.10176540669954459
0.11197610872895307
0.10852839920419602
0.885088465300404
0.7801868508450933
0.8901037071215983
0.7601468646912939
0.8800782367780684
0.6552188469686544
0.6401986128906839
0.6702463564458124
0.7304238140955196
0.8685653323077979
0.865207107916701
0.4608867770763057
0.6057559967398789
0.5956523625341124
0.4878829985222459
0.7438451600651036
0.6158211357534527
0.8719130318724524
0.23089513354672314
0.3563449186124781
0.34596840319314587
0.1195154824677646
0.11556013900544632
0.2457432754122095
0.12462427533951614
0.3667149221216457
0.5702961250011555
0.5271604012659785
0.5138489206173323
0.5569869576479177
0.5420732422386701
0.550264528959679
0.4973379080912962
0.47422966376532794
0.5122485856047938
0.4115007095337986
0.3981821053070272
0.4609150777925422
0.436207564662371
0.4573953856226521
0.5103310905124214
0.4856230128475427
0.530238038122137
0.46752032119345555
0.43461408284232395
0.48242845883237057
0.5102170416282781
0.395003097724639
0.45261356449496065
0.27976093989129003
0.3620896080562483
0.33738550822213736
0.33897016216762554
0.3867946881489098
0.25663494659713515
0.2433059350047019
0.3256466245976964
0.2911405216823853
0.1644930332799674
0.22212984994672808
0.0492070593690738
0.15115890202279206
0.10685162371761028
0.14762342457385016
0.23977523678944349
0.19546673133825151
0.394659725820843
0.40093443918645394
0.4636710862565484
0.42916592999246433
0.32212051315796825
0.36015312698911134
0.24604418671650383
0.32839300193503657
0.28408418813925873
0.3444649454705092
0.4170062437154531
0.3727007582549282
0.400369659939575
0.44185669865929184
0.45848818594602236
0.42943007843434816
0.41377721792475647
0.46671765879396876
0.494789956826212
0.4542859678274855
0.5591613455299627
0.5757868185242532
0.5114174124182288
0.5352900097002254
0.5165984300277903
0.48754422953881926
0.4272014749376646
0.49158681128108145
0.5310938580965294
0.47915143004919125
0.44064245944528624
0.5164598465409664
0.5673947363769081
0.5040231964515735
0.6546197199951299
0.6941230659008719
0.606897351511286
0.6307605768627246
0.6349634561547818
0.5830307033248456
0.7221914332495005
0.7388210737316924
0.6515896312270224
0.6868932734732893
0.7927701624579909
0.8208438264588387
0.7574837853280981
0.9309219074401464
0.9475649427334634
0.8374792627332139
0.8842039906880265
0.8426734175313803
0.7440088917998593
0.7907475913393085
0.5809678678711686
0.5747020800555482
0.5456510153944402
0.6567729619965145
0.6162809715664107
0.7377521663173895
0.650510722362442
0.697263203217963
0.6328004109218701
0.6037517685762986
0.3797303772987645
0.33059730676285254
0.39153813374639923
0.3856306391496008
0.3679509470794289
0.3204572266005338
0.37383724752649894
0.26284254318537564
0.21365680313357463
0.2712947002012066
0.26706282108725327
0.22046016502925303
0.27980280369165406
0.2755404691234376
0.3561971178283194
0.3103551610638183
0.36207106008958895
0.3002825973486062
0.3503285926980473
0.2001844331681462
0.25442950120512686
0.2502339084292088
0.2069042805561692
0.2586319577451988
0.15265246028857143
0.10344659625062402
0.15770453511474927
0.15517497841624622
0.10008835058250506
0.15013560074681756
0.05088104172558556
0.05004313287309332
0.05256400769494316
0.05172114419173443
0.16279332133127597
0.11024325654326107
0.1679462211793774
0.16535917524853475
0.10682614278802945
0.16024307079513095
0.0542619804270763
0.05341050515467359
0.05598952440618086
0.05512053493850692
0.9450542338690848
0.8926128666931975
0.9463093927561471
0.9425456130793394
0.8875955204515423
0.9437996048039807
0.8276278867827841
0.775174178361875
0.8351480471997699
0.8313872252346245
0.7852010534414149
0.8389101831042358
0.940039859380667
0.8825826686012669
0.9412923422219703
0.8775752639654998
0.9387882214913484
0.7551417562686794
0.8201142115627026
0.8163601130272035
0.7651540519300039
0.8238701741591032
0.7001752897845859
0.6477077737298473
0.7126937308096387
0.7064335058316348
0.6326914657859134
0.6939191951402461
0.5802160223999693
0.5714576728992531
0.5977379942171486
0.5889761500042932
0.7252197266363998
0.6777625094173241
0.7314852288894158
0.6627317355832605
0.7189558497550925
0.6152663803075918
0.6065014317745285
0.6240327355632524
0.8635263093409619
0.9326025390353191
0.9317622233207823
0.7270594205851338
0.7978140705312656
0.7952921060180478
0.7337866518208788
0.8028528987599188
0.8668870837698839
0.8003348060648909
0.9342815215749687
0.9334424544745784
0.5905963972580417
0.6630366097332061
0.6588278333911044
0.4541239213855319
0.5282699532990678
0.522363126161705
0.4676522408277801
0.5400776257330896
0.600706820737111
0.5341765589559504
0.6714462039179327
0.6672437023856477
0.6107955284004504
0.6798256249405992
0.740499378515586
0.6756411294494793
0.48116013522051965
0.5518375450556782
0.5459667979402236
0.4945727198080767
0.6208294544656808
0.5576845206642987
0.7471817735716785
0.6839974736340025
0.8702409288460893
0.9359553218271226
0.9351192828113707
0.8078754100455167
0.8053668880914739
0.87358098622351
0.8103774970247924
0.936789319664003
0.34081348728072847
0.403440232459165
0.39748162312975194
0.22736732053959188
0.2884584456770711
0.28411131258207173
0.23448923528156093
0.2972835935738578
0.35114791972963383
0.2928493666037761
0.41538222099125494
0.40940987359437847
0.11374265869955867
0.17326435474760618
0.1705769845902911
0.057793971563444464
0.05687651671813785
0.059853779489428674
0.1174631098868329
0.05876742686232616
0.17893354997732852
0.17603635889193467
0.12183547596791841
0.1852837650309999
0.2419265269823671
0.18200581647142003
0.06318567335105814
0.061194694202504736
0.1281042770968486
0.06705579193127524
0.2495088549952286
0.18867597078644013
0.3615431252430632
0.42727768963144525
0.4213439990102739
0.3062040247102279
0.3017475051381369
0.3718241427471682
0.3105858886318458
0.4331650002853352
