# vtk DataFile Version 3.0
LucasCarvalhoTCC Results
ASCII

DATASET POLYDATA
FIELD FieldData 1
TIME 1 1 double
0.015414675859066232

POINTS 417 float
0.8749999999996735 0.0 0.0
0.9374999999998368 0.0 0.0
0.8124999999995102 0.0 0.0
0.6874999999991838 0.0 0.0
0.5624999999988572 0.0 0.0
0.4374999999988753 0.0 0.0
0.3124999999992381 0.0 0.0
0.1874999999995994 0.0 0.0
0.0624999999998897 0.0 0.0
0.0 0.0 0.0
0.749999999999347 0.0 0.0
0.6249999999990205 0.0 0.0
0.499999999998694 0.0 0.0
0.3749999999990567 0.0 0.0
0.2499999999994194 0.0 0.0
0.1249999999997794 0.0 0.0
1.0 0.0 0.0
1.0 1.0 0.0
1.0 0.1249999999997794 0.0
1.0 0.2499999999994194 0.0
1.0 0.3749999999990567 0.0
1.0 0.499999999998694 0.0
1.0 0.6249999999990205 0.0
1.0 0.749999999999347 0.0
1.0 0.8749999999996735 0.0
1.0 0.0624999999998897 0.0
1.0 0.1874999999995994 0.0
1.0 0.3124999999992381 0.0
1.0 0.4374999999988753 0.0
1.0 0.5624999999988572 0.0
1.0 0.6874999999991838 0.0
1.0 0.8124999999995102 0.0
1.0 0.9374999999998368 0.0
-0.0 1.0 0.0
0.8750000000003563 1.0 0.0
0.7500000000009891 1.0 0.0
0.6250000000015759 1.0 0.0
0.5000000000020591 1.0 0.0
0.3750000000015444 1.0 0.0
0.2500000000010296 1.0 0.0
0.1250000000005148 1.0 0.0
0.9375000000001781 1.0 0.0
0.8125000000006727 1.0 0.0
0.6875000000012825 1.0 0.0
0.5625000000018174 1.0 0.0
0.4375000000018018 1.0 0.0
0.312500000001287 1.0 0.0
0.1875000000007722 1.0 0.0
0.0625000000002574 1.0 0.0
0.0 0.8750000000003563 0.0
0.0 0.7500000000009891 0.0
0.0 0.6250000000015759 0.0
0.0 0.5000000000020591 0.0
0.0 0.3750000000015444 0.0
0.0 0.2500000000010296 0.0
0.0 0.1250000000005148 0.0
0.0 0.9375000000001781 0.0
0.0 0.8125000000006727 0.0
0.0 0.6875000000012825 0.0
0.0 0.5625000000018174 0.0
0.0 0.4375000000018018 0.0
0.0 0.312500000001287 0.0
0.0 0.1875000000007722 0.0
0.0 0.0625000000002574 0.0
0.5647364308662526 0.446732401698651 0.0
0.2354892605327167 0.5800652382235558 0.0
0.287250702605353 0.3933735249345629 0.0
0.1177446302663583 0.5400326191128075 0.0
0.1436253513026765 0.1966867624672815 0.0
0.2613699815690348 0.4867193815790594 0.0
0.1306849907845174 0.3683596907900445 0.0
0.4259935667358028 0.420052963316607 0.0
0.5323682154341558 0.7233662008493256 0.0
0.3677446302673879 0.7900326191117779 0.0
0.3968690985015953 0.6050427912141925 0.0
0.5323682154324733 0.2233662008493255 0.0
0.3379967833676111 0.2100264816583035 0.0
0.183872315133694 0.7700163095563834 0.0
0.7823682154331263 0.4733662008486725 0.0
0.7661841077170577 0.7366831004243363 0.0
0.7661841077162367 0.2366831004243725 0.0
0.1766169453995375 0.5600489286681817 0.0
0.1242148105254379 0.454196154951426 0.0
0.1960274861767761 0.4275395361845519 0.0
0.2484296210508757 0.5333923099013076 0.0
0.1863222157881568 0.4937942324263668 0.0
0.05887231513317917 0.5200163095574333 0.0
0.0653424953922587 0.3091798453955371 0.0
0.06210740526271893 0.4145980774764852 0.0
0.07181267565133824 0.09834338123364073 0.0
0.1371551710435969 0.282523226628663 0.0
0.06857758552179846 0.2037616133145889 0.0
0.2154380269540147 0.2950301437009222 0.0
0.2743103420871938 0.4400464532568111 0.0
0.2057327565653954 0.361284839942737 0.0
0.3566221346705779 0.406713244125585 0.0
0.411431332618699 0.5125478772653997 0.0
0.3291195400353151 0.5458810863966259 0.0
0.3428708373529465 0.4762971652611054 0.0
0.4953649988010277 0.433392682507629 0.0
0.5485523231502042 0.5850493012739884 0.0
0.4646186569678755 0.664204496031759 0.0
0.4799918278844516 0.548798589269694 0.0
0.5161841077181075 0.8616831004246628 0.0
0.4338723151347235 0.895016309555889 0.0
0.3823068643844916 0.6975377051629852 0.0
0.4492454860512995 0.779610402793824 0.0
0.3016169454000523 0.6850489286676669 0.0
0.3153682427176836 0.6154650075321464 0.0
0.3819951750517069 0.3150397224874552 0.0
0.4351824994000422 0.2166963412538145 0.0
0.548552323149363 0.3350493012739882 0.0
0.465273749100535 0.3250445118807217 0.0
0.2408110673351438 0.2033566220627925 0.0
0.2987166010028608 0.3050349330941887 0.0
0.2939983916835152 0.1050132408291517 0.0
0.1829055336674616 0.1016783110313962 0.0
0.5161841077155837 0.1116831004246628 0.0
0.4050912496995495 0.1083481706269072 0.0
0.2169361575673618 0.8850081547781917 0.0
0.2758084727005409 0.7800244643340807 0.0
0.3254042363510427 0.8900122321670404 0.0
0.09193615756684699 0.7600081547786863 0.0
0.1084680787836809 0.880004077389274 0.0
0.1508084727000262 0.6550244643345955 0.0
0.07540423635001309 0.6400122321680856 0.0
0.2262127090500392 0.6700366965011312 0.0
0.6492761615756067 0.7300246506368309 0.0
0.7580920538590235 0.8683415502121681 0.0
0.6371380807885914 0.8650123253184154 0.0
0.6735523231496894 0.4600493012736618 0.0
0.7742761615750919 0.6050246506365045 0.0
0.661414242362648 0.5950369759552463 0.0
0.8911841077165632 0.4866831004236832 0.0
0.8830920538585288 0.7433415502118417 0.0
0.887138080787546 0.6150123253177625 0.0
0.8790460269294426 0.871670775105921 0.0
0.649276161574355 0.230024650636849 0.0
0.7742761615746815 0.3550246506365225 0.0
0.6614142423620222 0.3450369759552553 0.0
0.7580920538577918 0.1183415502121862 0.0
0.6371380807866877 0.1150123253184245 0.0
0.8830920538581184 0.2433415502118959 0.0
0.879046026928896 0.1216707751059828 0.0
0.8871380807873408 0.3650123253177896 0.0
0.2060531029661271 0.5700570834458687 0.0
0.1814695805938472 0.5269215805472742 0.0
0.2173759184195163 0.5135932711638371 0.0
0.2419594407917962 0.5567287740624317 0.0
0.2117145106928217 0.5418251773048528 0.0
0.1471807878329479 0.5500407738904947 0.0
0.1209797203958981 0.4971143870321167 0.0
0.1552685131567973 0.4739951936888964 0.0
0.1512246504948726 0.5120179837896954 0.0
0.1274499006549776 0.4112779228707353 0.0
0.1633562384806467 0.3979496134872982 0.0
0.1911748509824664 0.4606668843054593 0.0
0.159312375818722 0.4359724035880972 0.0
0.2286987338729055 0.4571294588818057 0.0
0.2548998013099553 0.5100558457401835 0.0
0.2230373261462109 0.4853613650228214 0.0
0.08830847269976874 0.5300244643351204 0.0
0.06048986019794905 0.4673071935169593 0.0
0.09316110789407842 0.4343971162139556 0.0
0.09073479029692358 0.482210790274538 0.0
0.02943615756658959 0.5100081547797461 0.0
0.03105370263135946 0.3947990387390148 0.0
0.03024493009897453 0.4524035967593805 0.0
0.03267124769612935 0.2795899226982834 0.0
0.06372495032748882 0.3618889614360111 0.0
0.03186247516374441 0.337194480718649 0.0
0.09801374308838805 0.3387697680927908 0.0
0.09558742549123322 0.3865834421533731 0.0
0.06696004045702858 0.256470729355063 0.0
0.1028663782826977 0.2431424199716259 0.0
0.1339200809140572 0.3254414587093538 0.0
0.1004400606855429 0.2909560940322084 0.0
0.03428879276089923 0.1643808066575518 0.0
0.03348002022851429 0.2219853646779176 0.0
0.03590633782566912 0.04917169061682036 0.0
0.07019513058656834 0.1510524972741148 0.0
0.03509756529328417 0.1067762486371861 0.0
0.1077190134770074 0.1475150718504611 0.0
0.1403902611731367 0.2396049945479723 0.0
0.1052926958798525 0.1953287459110435 0.0
0.2008801213710857 0.3944121880636445 0.0
0.2400215493262946 0.4006656465997741 0.0
0.2678401618281143 0.4633829174179352 0.0
0.2343601415996001 0.4288975527407898 0.0
0.1714439638044962 0.3219040332857001 0.0
0.1674001011425715 0.3599268233864991 0.0
0.1795316891283456 0.2458584530841018 0.0
0.2105853917597051 0.3281574918218296 0.0
0.1754878264664209 0.2838812431849009 0.0
0.2513443647796839 0.3442018343177425 0.0
0.2807805223462734 0.416709989095687 0.0
0.2456829570529892 0.3724337404587583 0.0
0.3219364186379655 0.4000433845300739 0.0
0.3497464860117622 0.4415052046933452 0.0
0.3085905897200701 0.4581718092589582 0.0
0.3152635041790178 0.4291075968945161 0.0
0.3913078507031904 0.413383103721096 0.0
0.4187124496772509 0.4663004202910034 0.0
0.3771510849858227 0.4944225212632526 0.0
0.3842294678445065 0.4539028124921743 0.0
0.4041502155601472 0.5587953342397961 0.0
0.3629943192684552 0.5754619388054092 0.0
0.3359951886941308 0.5110891258288657 0.0
0.370072702127139 0.5349422300343308 0.0
0.2952447608021749 0.5163002339878426 0.0
0.3019176752611226 0.4872360216234005 0.0
0.4606792827684152 0.426722822912118 0.0
0.4876784133427396 0.4910956358886616 0.0
0.4457115802515753 0.5306732332675469 0.0
0.4531954315099953 0.4786980280898325 0.0
0.5300507148336402 0.44006254210314 0.0
0.5566443770082283 0.5158908514863196 0.0
0.5142720755173279 0.5669239452718412 0.0
0.522161395175484 0.5034932436874906 0.0
0.54046026929218 0.654207751061657 0.0
0.4984934362010157 0.6937853484405423 0.0
0.4723052424261636 0.6065015426507265 0.0
0.5063827558591718 0.6303546468561917 0.0
0.4307438777347354 0.6346236436229757 0.0
0.4382277289931554 0.5826484384452614 0.0
0.4569320715095875 0.7219074494127915 0.0
0.4157761752178956 0.7385740539784046 0.0
0.3895879814430434 0.6512902481885888 0.0
0.4232600264763154 0.6865988488006901 0.0
0.5242761615761317 0.7925246506369942 0.0
0.4827147968847035 0.8206467516092434 0.0
0.4906041165428595 0.7572160500248929 0.0
0.5080920538600833 0.9308415502123314 0.0
0.4669361575683914 0.9475081547779445 0.0
0.4415589005930115 0.8373133561748565 0.0
0.4748254772265474 0.884077453193594 0.0
0.4008084727010557 0.8425244643338334 0.0
0.3750257473259397 0.7437851621373816 0.0
0.4082923239594756 0.7905492591561191 0.0
0.3222438913764993 0.5806730469643862 0.0
0.2818989318842797 0.574428658716727 0.0
0.2885718463432273 0.5453644463522848 0.0
0.3488375535510876 0.6565013563475658 0.0
0.3559159364097714 0.6159816475764875 0.0
0.3346807878337201 0.7375407738897224 0.0
0.308492594058868 0.6502569680999066 0.0
0.3417591706924039 0.6970210651186441 0.0
0.2685531029663845 0.6325570834456113 0.0
0.2752260174253321 0.6034928710811692 0.0
0.4803193739507813 0.3792185971941754 0.0
0.506913036124949 0.3300469065773549 0.0
0.5566443770078078 0.3908908514863196 0.0
0.5184818754792946 0.3850547243402475 0.0
0.4039943708937548 0.3675463429020311 0.0
0.4236344620761209 0.3200421171840885 0.0
0.4421568724222681 0.3733824700481033 0.0
0.359995979209659 0.2625331020728794 0.0
0.3865896413838267 0.213361411456059 0.0
0.4502281242502886 0.2708704265672681 0.0
[...]
POINT_DATA 417

SCALARS Temperature float 1

LOOKUP_TABLE Temperature
0.0
0.0
0.0
0.0
0.0
0.0
0.0
0.0
0.0
0.0
0.0
0.0
0.0
0.0
0.0
0.0
0.030736140486955877
1.0
0.10580588849532839
0.20676847066493761
0.31632724689886077
0.43512005020627414
0.5640692966645535
0.7027724161652076
0.8492482573055221
0.060988168434018455
0.15510554101703333
0.2604766161284089
0.37449278633968075
0.49831485991557034
0.6322873206868216
0.7752252000996169
0.9243584040347426
1.0
1.0
1.0
1.0
1.0
1.0
1.0
1.0
1.0
1.0
1.0
1.0
1.0
1.0
1.0
1.0
0.8490041091073717
0.7023996580999339
0.5635403592895784
0.4342963282409065
0.31509680176263605
0.20464142664987833
0.10061783572837901
0.9242045947670944
0.7749141758811885
0.6318454468729281
0.49766784627227906
0.37349860265199497
0.258898609837306
0.15200277354098307
0.05009014376039315
0.38263804858727596
0.516056883006938
0.3322044303926973
0.4746602535924513
0.1597070122548478
0.42134181823931754
0.30912701729010256
0.35717489371904376
0.6721545168835698
0.748708807345131
0.5423792773690301
0.18234058591640576
0.17092722483860592
0.7254395827584175
0.4087744045107643
0.6873518094187194
0.19429470589174105
0.49523443591862715
0.3896106045300528
0.36417482861976913
0.46802035621742655
0.42831132989222204
0.45433436774966285
0.25602264604442976
0.35188743466720523
0.07900012512143743
0.2327162816174215
0.1655985409913794
0.24369789298195657
0.37613001780869826
0.3027233548394906
0.34467799902408325
0.4470255353318433
0.48073396272899566
0.4111653875620953
0.36982922008059077
0.5212481512883114
0.6062273288173795
0.4837198793576045
0.8331794044705224
0.8730455234650765
0.6431440825849596
0.7366207950581852
0.6292537840699298
0.5534561588000987
0.261311276523754
0.1766007498765946
0.2792908239541941
0.27025756269963674
0.1652952446576961
0.25245228617512727
0.0844453631214719
0.08172092931576945
0.08997604236336841
0.08719038394908316
0.8610174646418902
0.7370480248594999
0.8670303761341664
0.7138888902555415
0.855011207378413
0.5960647193014101
0.5797228763901843
0.6125300112805505
0.6797461133071383
0.841141818812632
0.8371538755996727
0.39566381606615986
0.5427037808543042
0.531947319092648
0.4219382767013105
0.6951354243030028
0.5533710099359701
0.8451385421073895
0.1882057314454984
0.2977631777751663
0.2884624607305717
0.09602386115804977
0.09285530508440883
0.2006394690367846
0.10009314565276656
0.30711015006543274
0.5056085320915281
0.46142174294541594
0.44803279717385636
0.491856039553624
0.47656628625637526
0.48495059885905906
0.43154531395197276
0.4088377660159558
0.4464171461540596
0.34882173881445205
0.3363949404783079
0.39590146888648764
0.37217456273943517
0.3924921773302019
0.4444927270295602
0.42000811058264
0.46445968776505536
0.4022394578498754
0.3706289150752612
0.4168199334501224
0.4442801428259257
0.33337928182518023
0.38780052387191777
0.230133243237842
0.3031908416864436
0.2808854000974459
0.2823434488235539
0.3258315656066904
0.21022449668562515
0.19885852252669664
0.27045312617733197
0.24005774860589876
0.13288378290971428
0.18088935215872454
0.0393893621608455
0.12193247660368896
0.08582242890155414
0.1190378706995964
0.1958802064964989
0.15856651218978962
0.333106022891405
0.338983982358915
0.39855418981771074
0.3654664429080538
0.2673141320873108
0.3014657187607376
0.20119135533310686
0.27295116375593687
0.233951704336067
0.2873298541050588
0.3539997708747387
0.31292053119361196
0.33841831377253595
0.3775397750876462
0.3935414213986873
0.36572407773216353
0.35090123297746756
0.40142476981254427
0.42899140560744203
0.38943340971160767
0.4940093773915445
0.5112751433179692
0.4455615561387806
0.46960221675539365
0.450764454378194
0.4218831241627947
0.36348486716254647
0.4256969681458546
0.46526861961721744
0.41351348819569
0.3762108684138704
0.45032084995139837
0.5023788282364878
0.43796995836588476
0.595255685182764
0.638942165260329
0.5439153461321871
0.5694084878866109
0.5740334290729622
0.5187812986625555
0.6705293650667535
0.6894488258818183
0.592105860967027
0.6309613671975505
0.7516217556625869
0.7845696463367122
0.7107679031632423
0.9162132932247995
0.9363553067749124
0.80423549912316
0.859932846400925
0.810396246250081
0.6953918047008034
0.7493259651378391
0.5166791964988865
0.5102105532573065
0.48018179904340286
0.5977619562767509
0.5540114258748217
0.6882757215565637
0.591010353853888
0.6425582916033648
0.5717865605875334
0.5407253767302974
0.3192204999032582
0.2747616894534104
0.3300744128175057
0.32463154936571914
0.3084748061426268
0.26577503886013326
0.31383707073999767
0.21552658982008407
0.1737574465819208
0.22278313293555813
0.2191461358821276
0.1794605102414232
0.23011708993503976
0.22643912348688158
0.29783765105372345
0.2568742192652703
0.3031172962280574
0.24803070527015414
0.29256377650900356
0.16250004240356236
0.20832248150640004
0.20472918806195095
0.16810677466895624
0.21192082277190483
0.12316660198095983
0.08308151257824159
0.1273092891073977
0.12523416516308442
0.0803609096343073
0.12110297206592587
0.04074153299225695
0.040066080040229914
0.042092895412159756
0.04141673726572806
0.1314853054494083
0.08857617292823818
0.13571635743055563
0.13359177726944715
0.08581438985065144
0.12939229395881222
0.04345329229023472
0.0427713285785412
0.04483538764614459
0.044140459806645514
0.9333231303976288
0.8700376893899852
0.9348393786988011
0.9302896515717086
0.8640232707525679
0.9318064942984143
0.7926070290702317
0.7312368459079976
0.8014944969379125
0.7970471370928187
0.74288157451389
0.8059444838560508
0.9272551610409647
0.8580136404097458
0.9287727621114124
0.8520087508466583
0.9257345195511694
0.7081360683095829
0.783747361688409
0.7793273998249668
0.7196570351855747
0.788173851580659
0.6457900114036914
0.587871761397259
0.6598399124831154
0.6528026033545761
0.5716119106960865
0.6388040526886116
0.5158745182550497
0.5067441079544497
0.5342654948493843
0.5250532045560574
0.6739876608773674
0.6208725907222228
0.6810831160076697
0.6042907776951215
0.6668989853429933
0.5529516862987994
0.5435901864834799
0.5623764423441078
0.8351639064911296
0.9182200591456767
0.9172139590868307
0.675943647235915
0.7574692501703167
0.7545419153666375
0.6835480460094555
0.7633317565399812
0.8391469150974536
0.7603995357748572
0.9202385829029591
0.9192286517986876
0.526504989811107
0.6044511469289314
0.599833674024393
0.3891455812144703
0.4623556853324312
0.45642570617877987
0.40221033867571715
0.4743244265948717
0.5374007134976174
0.4683435845795071
0.6138273657420182
0.6090425119386025
0.5480314023053076
0.6230443950403435
0.6913249754595332
0.6184311947522845
0.41535194837530187
0.48630833130773843
0.48031236929170656
0.4285285299035726
0.5587177224221941
0.49230988123639674
0.6989516181021879
0.6276634916748352
0.84313865291115
0.9222632093506913
0.92124978365823
0.7693373254782115
0.7662664238222892
0.847236133508367
0.7722780017388367
0.9232815495321639
0.28385792343412053
0.34109305753164737
0.33556663412477844
0.18525080746528616
0.23757982647233056
0.23382816325055478
0.19121663193707478
0.2452100694480213
0.2930998455883471
0.24137427678779663
0.3522183406992664
0.3466460060169903
0.09139560375084402
0.14006422730775003
0.13786720115268922
0.04626956360766526
0.04554060712378859
0.047901700188349446
0.09438155641260149
0.04704184161619225
0.1446913556574377
0.14232857751683903
0.09787478172935914
0.1498541020174484
0.19744338312378526
0.1471915736454046
0.05052969315201044
0.04896031263644017
0.10285677016535952
0.053582540106183706
0.20380122171117288
0.1526090968234881
0.30244002736777664
0.3633811073696788
0.35780058816369237
0.25294596954808857
0.24907662297738703
0.3117470354491521
0.25676701201127167
0.3689477464519153
