# vtk DataFile Version 3.0
LucasCarvalhoTCC Results
ASCII

DATASET POLYDATA
FIELD FieldData 1
TIME 1 1 double
0.015414675859066232

POINTS 417 float
0.8749999999996735 0.0 0.0
0.9374999999998368 0.0 0.0
0.8124999999995102 0.0 0.0
0.6874999999991838 0.0 0.0
0.5624999999988572 0.0 0.0
0.4374999999988753 0.0 0.0
0.3124999999992381 0.0 0.0
0.1874999999995994 0.0 0.0
0.0624999999998897 0.0 0.0
0.0 0.0 0.0
0.749999999999347 0.0 0.0
0.6249999999990205 0.0 0.0
0.499999999998694 0.0 0.0
0.3749999999990567 0.0 0.0
0.2499999999994194 0.0 0.0
0.1249999999997794 0.0 0.0
1.0 0.0 0.0
1.0 1.0 0.0
1.0 0.1249999999997794 0.0
1.0 0.2499999999994194 0.0
1.0 0.3749999999990567 0.0
1.0 0.499999999998694 0.0
1.0 0.6249999999990205 0.0
1.0 0.749999999999347 0.0
1.0 0.8749999999996735 0.0
1.0 0.0624999999998897 0.0
1.0 0.1874999999995994 0.0
1.0 0.3124999999992381 0.0
1.0 0.4374999999988753 0.0
1.0 0.5624999999988572 0.0
1.0 0.6874999999991838 0.0
1.0 0.8124999999995102 0.0
1.0 0.9374999999998368 0.0
-0.0 1.0 0.0
0.8750000000003563 1.0 0.0
0.7500000000009891 1.0 0.0
0.6250000000015759 1.0 0.0
0.5000000000020591 1.0 0.0
0.3750000000015444 1.0 0.0
0.2500000000010296 1.0 0.0
0.1250000000005148 1.0 0.0
0.9375000000001781 1.0 0.0
0.8125000000006727 1.0 0.0
0.6875000000012825 1.0 0.0
0.5625000000018174 1.0 0.0
0.4375000000018018 1.0 0.0
0.312500000001287 1.0 0.0
0.1875000000007722 1.0 0.0
0.0625000000002574 1.0 0.0
0.0 0.8750000000003563 0.0
0.0 0.7500000000009891 0.0
0.0 0.6250000000015759 0.0
0.0 0.5000000000020591 0.0
0.0 0.3750000000015444 0.0
0.0 0.2500000000010296 0.0
0.0 0.1250000000005148 0.0
0.0 0.9375000000001781 0.0
0.0 0.8125000000006727 0.0
0.0 0.6875000000012825 0.0
0.0 0.5625000000018174 0.0
0.0 0.4375000000018018 0.0
0.0 0.312500000001287 0.0
0.0 0.1875000000007722 0.0
0.0 0.0625000000002574 0.0
0.5647364308662526 0.446732401698651 0.0
0.2354892605327167 0.5800652382235558 0.0
0.287250702605353 0.3933735249345629 0.0
0.1177446302663583 0.5400326191128075 0.0
0.1436253513026765 0.1966867624672815 0.0
0.2613699815690348 0.4867193815790594 0.0
0.1306849907845174 0.3683596907900445 0.0
0.4259935667358028 0.420052963316607 0.0
0.5323682154341558 0.7233662008493256 0.0
0.3677446302673879 0.7900326191117779 0.0
0.3968690985015953 0.6050427912141925 0.0
0.5323682154324733 0.2233662008493255 0.0
0.3379967833676111 0.2100264816583035 0.0
0.183872315133694 0.7700163095563834 0.0
0.7823682154331263 0.4733662008486725 0.0
0.7661841077170577 0.7366831004243363 0.0
0.7661841077162367 0.2366831004243725 0.0
0.1766169453995375 0.5600489286681817 0.0
0.1242148105254379 0.454196154951426 0.0
0.1960274861767761 0.4275395361845519 0.0
0.2484296210508757 0.5333923099013076 0.0
0.1863222157881568 0.4937942324263668 0.0
0.05887231513317917 0.5200163095574333 0.0
0.0653424953922587 0.3091798453955371 0.0
0.06210740526271893 0.4145980774764852 0.0
0.07181267565133824 0.09834338123364073 0.0
0.1371551710435969 0.282523226628663 0.0
0.06857758552179846 0.2037616133145889 0.0
0.2154380269540147 0.2950301437009222 0.0
0.2743103420871938 0.4400464532568111 0.0
0.2057327565653954 0.361284839942737 0.0
0.3566221346705779 0.406713244125585 0.0
0.411431332618699 0.5125478772653997 0.0
0.3291195400353151 0.5458810863966259 0.0
0.3428708373529465 0.4762971652611054 0.0
0.4953649988010277 0.433392682507629 0.0
0.5485523231502042 0.5850493012739884 0.0
0.4646186569678755 0.664204496031759 0.0
0.4799918278844516 0.548798589269694 0.0
0.5161841077181075 0.8616831004246628 0.0
0.4338723151347235 0.895016309555889 0.0
0.3823068643844916 0.6975377051629852 0.0
0.4492454860512995 0.779610402793824 0.0
0.3016169454000523 0.6850489286676669 0.0
0.3153682427176836 0.6154650075321464 0.0
0.3819951750517069 0.3150397224874552 0.0
0.4351824994000422 0.2166963412538145 0.0
0.548552323149363 0.3350493012739882 0.0
0.465273749100535 0.3250445118807217 0.0
0.2408110673351438 0.2033566220627925 0.0
0.2987166010028608 0.3050349330941887 0.0
0.2939983916835152 0.1050132408291517 0.0
0.1829055336674616 0.1016783110313962 0.0
0.5161841077155837 0.1116831004246628 0.0
0.4050912496995495 0.1083481706269072 0.0
0.2169361575673618 0.8850081547781917 0.0
0.2758084727005409 0.7800244643340807 0.0
0.3254042363510427 0.8900122321670404 0.0
0.09193615756684699 0.7600081547786863 0.0
0.1084680787836809 0.880004077389274 0.0
0.1508084727000262 0.6550244643345955 0.0
0.07540423635001309 0.6400122321680856 0.0
0.2262127090500392 0.6700366965011312 0.0
0.6492761615756067 0.7300246506368309 0.0
0.7580920538590235 0.8683415502121681 0.0
0.6371380807885914 0.8650123253184154 0.0
0.6735523231496894 0.4600493012736618 0.0
0.7742761615750919 0.6050246506365045 0.0
0.661414242362648 0.5950369759552463 0.0
0.8911841077165632 0.4866831004236832 0.0
0.8830920538585288 0.7433415502118417 0.0
0.887138080787546 0.6150123253177625 0.0
0.8790460269294426 0.871670775105921 0.0
0.649276161574355 0.230024650636849 0.0
0.7742761615746815 0.3550246506365225 0.0
0.6614142423620222 0.3450369759552553 0.0
0.7580920538577918 0.1183415502121862 0.0
0.6371380807866877 0.1150123253184245 0.0
0.8830920538581184 0.2433415502118959 0.0
0.879046026928896 0.1216707751059828 0.0
0.8871380807873408 0.3650123253177896 0.0
0.2060531029661271 0.5700570834458687 0.0
0.1814695805938472 0.5269215805472742 0.0
0.2173759184195163 0.5135932711638371 0.0
0.2419594407917962 0.5567287740624317 0.0
0.2117145106928217 0.5418251773048528 0.0
0.1471807878329479 0.5500407738904947 0.0
0.1209797203958981 0.4971143870321167 0.0
0.1552685131567973 0.4739951936888964 0.0
0.1512246504948726 0.5120179837896954 0.0
0.1274499006549776 0.4112779228707353 0.0
0.1633562384806467 0.3979496134872982 0.0
0.1911748509824664 0.4606668843054593 0.0
0.159312375818722 0.4359724035880972 0.0
0.2286987338729055 0.4571294588818057 0.0
0.2548998013099553 0.5100558457401835 0.0
0.2230373261462109 0.4853613650228214 0.0
0.08830847269976874 0.5300244643351204 0.0
0.06048986019794905 0.4673071935169593 0.0
0.09316110789407842 0.4343971162139556 0.0
0.09073479029692358 0.482210790274538 0.0
0.02943615756658959 0.5100081547797461 0.0
0.03105370263135946 0.3947990387390148 0.0
0.03024493009897453 0.4524035967593805 0.0
0.03267124769612935 0.2795899226982834 0.0
0.06372495032748882 0.3618889614360111 0.0
0.03186247516374441 0.337194480718649 0.0
0.09801374308838805 0.3387697680927908 0.0
0.09558742549123322 0.3865834421533731 0.0
0.06696004045702858 0.256470729355063 0.0
0.1028663782826977 0.2431424199716259 0.0
0.1339200809140572 0.3254414587093538 0.0
0.1004400606855429 0.2909560940322084 0.0
0.03428879276089923 0.1643808066575518 0.0
0.03348002022851429 0.2219853646779176 0.0
0.03590633782566912 0.04917169061682036 0.0
0.07019513058656834 0.1510524972741148 0.0
0.03509756529328417 0.1067762486371861 0.0
0.1077190134770074 0.1475150718504611 0.0
0.1403902611731367 0.2396049945479723 0.0
0.1052926958798525 0.1953287459110435 0.0
0.2008801213710857 0.3944121880636445 0.0
0.2400215493262946 0.4006656465997741 0.0
0.2678401618281143 0.4633829174179352 0.0
0.2343601415996001 0.4288975527407898 0.0
0.1714439638044962 0.3219040332857001 0.0
0.1674001011425715 0.3599268233864991 0.0
0.1795316891283456 0.2458584530841018 0.0
0.2105853917597051 0.3281574918218296 0.0
0.1754878264664209 0.2838812431849009 0.0
0.2513443647796839 0.3442018343177425 0.0
0.2807805223462734 0.416709989095687 0.0
0.2456829570529892 0.3724337404587583 0.0
0.3219364186379655 0.4000433845300739 0.0
0.3497464860117622 0.4415052046933452 0.0
0.3085905897200701 0.4581718092589582 0.0
0.3152635041790178 0.4291075968945161 0.0
0.3913078507031904 0.413383103721096 0.0
0.4187124496772509 0.4663004202910034 0.0
0.3771510849858227 0.4944225212632526 0.0
0.3842294678445065 0.4539028124921743 0.0
0.4041502155601472 0.5587953342397961 0.0
0.3629943192684552 0.5754619388054092 0.0
0.3359951886941308 0.5110891258288657 0.0
0.370072702127139 0.5349422300343308 0.0
0.2952447608021749 0.5163002339878426 0.0
0.3019176752611226 0.4872360216234005 0.0
0.4606792827684152 0.426722822912118 0.0
0.4876784133427396 0.4910956358886616 0.0
0.4457115802515753 0.5306732332675469 0.0
0.4531954315099953 0.4786980280898325 0.0
0.5300507148336402 0.44006254210314 0.0
0.5566443770082283 0.5158908514863196 0.0
0.5142720755173279 0.5669239452718412 0.0
0.522161395175484 0.5034932436874906 0.0
0.54046026929218 0.654207751061657 0.0
0.4984934362010157 0.6937853484405423 0.0
0.4723052424261636 0.6065015426507265 0.0
0.5063827558591718 0.6303546468561917 0.0
0.4307438777347354 0.6346236436229757 0.0
0.4382277289931554 0.5826484384452614 0.0
0.4569320715095875 0.7219074494127915 0.0
0.4157761752178956 0.7385740539784046 0.0
0.3895879814430434 0.6512902481885888 0.0
0.4232600264763154 0.6865988488006901 0.0
0.5242761615761317 0.7925246506369942 0.0
0.4827147968847035 0.8206467516092434 0.0
0.4906041165428595 0.7572160500248929 0.0
0.5080920538600833 0.9308415502123314 0.0
0.4669361575683914 0.9475081547779445 0.0
0.4415589005930115 0.8373133561748565 0.0
0.4748254772265474 0.884077453193594 0.0
0.4008084727010557 0.8425244643338334 0.0
0.3750257473259397 0.7437851621373816 0.0
0.4082923239594756 0.7905492591561191 0.0
0.3222438913764993 0.5806730469643862 0.0
0.2818989318842797 0.574428658716727 0.0
0.2885718463432273 0.5453644463522848 0.0
0.3488375535510876 0.6565013563475658 0.0
0.3559159364097714 0.6159816475764875 0.0
0.3346807878337201 0.7375407738897224 0.0
0.308492594058868 0.6502569680999066 0.0
0.3417591706924039 0.6970210651186441 0.0
0.2685531029663845 0.6325570834456113 0.0
0.2752260174253321 0.6034928710811692 0.0
0.4803193739507813 0.3792185971941754 0.0
0.506913036124949 0.3300469065773549 0.0
0.5566443770078078 0.3908908514863196 0.0
0.5184818754792946 0.3850547243402475 0.0
0.4039943708937548 0.3675463429020311 0.0
0.4236344620761209 0.3200421171840885 0.0
0.4421568724222681 0.3733824700481033 0.0
0.359995979209659 0.2625331020728794 0.0
0.3865896413838267 0.213361411456059 0.0
0.4502281242502886 0.2708704265672681 0.0
[...]
POINT_DATA 417

SCALARS Temperature float 1

LOOKUP_TABLE Temperature
0.0
0.0
0.0
0.0
0.0
0.0
0.0
0.0
0.0
0.0
0.0
0.0
0.0
0.0
0.0
0.0
0.03858469397205198
1.0
0.13164582505886618
0.2527256239924835
0.3764608676375666
0.5008170432989425
0.6254434222673664
0.7502217088369284
0.8750896174097088
0.07629865613566848
0.19150167357605744
0.3144695239752673
0.43859322365582804
0.5631060447782594
0.687818066813725
0.8126475620909398
0.9375422563639044
1.0
1.0
1.0
1.0
1.0
1.0
1.0
1.0
1.0
1.0
1.0
1.0
1.0
1.0
1.0
1.0
0.8749189361449682
0.7498527391471185
0.6248124708226163
0.4998034567042274
0.37482510324344687
0.24987078770425752
0.1249317779946805
0.9374584483962218
0.8123831814438779
0.687328871871061
0.5623040026587192
0.43731078952083263
0.31234546641764804
0.18739991744651663
0.06246541535645111
0.446967820090419
0.5799218618029324
0.39328950922168443
0.5398490574564909
0.19659885804810878
0.48659721128374117
0.36820530360491
0.42009431046736584
0.7233852792683954
0.7899685097088097
0.6049937322199958
0.22362775531143425
0.21002712820070235
0.7698955908196932
0.47400753969879617
0.7368465666829306
0.23788798022905328
0.5598823249909712
0.4540208488960993
0.42739450744034096
0.5332572158189782
0.49363442962140436
0.5198225299920146
0.3090309835373347
0.4144175895086987
0.09829157536313197
0.28239911202797785
0.2036575028135076
0.29493170971650484
0.4399418252556744
0.36116107640544465
0.406683785861472
0.5125368763738993
0.5457930440247984
0.47623471415251417
0.43352266506912607
0.585149985077996
0.66419302695892
0.5488439039926156
0.86167486014132
0.8949916254716709
0.6974707344529637
0.7795771121877717
0.6849420995986761
0.6153617809170282
0.3150630551925477
0.21679520245521391
0.3353314978742228
0.3251758353310255
0.20329954488427526
0.30498420057615877
0.10500175544580816
0.10163827241540618
0.1118364906500498
0.10839301768741263
0.8849454753130596
0.7799288830628267
0.8899666378587432
0.7598698721810444
0.8799293175373971
0.654861107879946
0.639832331764084
0.6698978104325127
0.7301190963705889
0.8684020129164185
0.8650400711264327
0.46048332911136836
0.605371910045139
0.5952640457815221
0.48747602356782516
0.7435523946962026
0.6154410525082311
0.8717535693197327
0.23062565620908512
0.3559786181161762
0.345608639685169
0.11936628226607428
0.11541599300185029
0.24545858395507186
0.12446841059923729
0.36634247682855536
0.5699013254664445
0.5267573075801775
0.5134447387018466
0.5565888418010543
0.5416722014759552
0.5498650674135813
0.496933205820432
0.4738264099991577
0.5118442841770129
0.41111167382789654
0.3977980780055853
0.46051356661379167
0.4358111076676804
0.4569943763520431
0.5099265825254908
0.48521882892626644
0.5298348819822304
0.4671174951589797
0.4342178832790878
0.48202424968583135
0.5098120374866496
0.39461999873957665
0.4522129964957419
0.2794492613129184
0.36172229600766687
0.3370323615226781
0.33861627080089335
0.3864153888908117
0.2563429747905882
0.24302604928986826
0.3253012731736639
0.2908199862801871
0.16429306490684242
0.22186979377881216
0.04914471958426836
0.1509738936060879
0.10671827680094617
0.14744243955960645
0.2394987597021595
0.1952336690716987
0.39427698647996207
0.40054945081720905
0.46326898494781477
0.4287711933828467
0.3217774567709659
0.35978703284234476
0.24576176735035182
0.32804615115434665
0.2837694203488172
0.3441079755084388
0.4166152757128352
0.37232823331153697
0.3999845550723938
0.4414585390207022
0.45808687359312783
0.42903523291316814
0.41338680286764656
0.46631442123877576
0.4943848729352491
0.45388496847688886
0.5587630137005994
0.5753931652168851
0.5110127560255219
0.534887394552418
0.516194182350704
0.4871397649361927
0.4268062832273509
0.4911808763444977
0.5306901205352814
0.4787465528052446
0.44024328568387816
0.5160533741278559
0.5669974574725672
0.5036167535100756
0.6542603124254072
0.6937903372472045
0.606514195571586
0.6303882453536207
0.6345939302612911
0.5826388689546645
0.7218807795513049
0.7385246683133718
0.6512295449206612
0.6865558508557399
0.7925241368189693
0.8206273954762333
0.7572037154727449
0.930834593773916
0.9474984409075335
0.8372811509716018
0.8840596918635135
0.8424811573940653
0.743717190485775
0.7904999817967372
0.5805758476440894
0.5743085908325906
0.5452502888802357
0.656415981673012
0.6159026637694381
0.7374551822318758
0.6501505746574272
0.6969336039872611
0.6324304705476788
0.6033684348449719
0.3793532750486654
0.33024772883567693
0.39115541401092474
0.385250650561869
0.3675799677618413
0.32011467021184015
0.37346316136368124
0.2625448348432954
0.21340491098678124
0.2709895721752761
0.26676138472228317
0.22020135219254186
0.2794903897671166
0.275231681140488
0.355832792851526
0.31001993114031556
0.3617031752796662
0.29995486844891567
0.3499678300409414
0.1999464495815381
0.2541392909946224
0.2499474279784774
0.2066593101740491
0.25833800205384855
0.1524657905070465
0.10331742231093631
0.15751210691670833
0.15498542902449555
0.09996322896935442
0.14995179591255134
0.050816658751117585
0.04997978316787043
0.052497507501411134
0.05165570951873456
0.16259510204054364
0.1101057703201808
0.16774214295960826
0.16515803736907708
0.10669284560252175
0.1600477539056227
0.05419331714056676
0.05334292888503821
0.05591864143767542
0.05505077107333667
0.9449846629929914
0.8924787480538354
0.946241358955135
0.9424729471533577
0.887455492523131
0.9437284898913412
0.8274192037448145
0.7749113596198353
0.834947561262363
0.8311826276489511
0.78494804681865
0.8387138104927339
0.9399640675366958
0.8824367160959572
0.941218118604991
0.8774233656902168
0.9387108383373856
0.7548601704822127
0.8198974258868988
0.8161393064778437
0.7648817202011162
0.8236574291192655
0.6998478729507928
0.6473456432063588
0.7123758900039266
0.7061108155144092
0.6323212383302343
0.6935871855792951
0.5798238237193973
0.5710628323205282
0.5973518128439904
0.588586867474207
0.7249119492757843
0.6774191713388267
0.7311825819793766
0.6623785634870841
0.718642964515585
0.6148879113357661
0.6061190064985369
0.6236585781314111
0.8633574546407865
0.9325171307018999
0.9316758468557246
0.7267520481156644
0.7975728238622491
0.7950484465736405
0.7334846033907872
0.8026165766321517
0.8667218920947479
0.8000960036630332
0.9341981024295449
0.9333580328626692
0.5902056160892926
0.6626820418040685
0.6584707253171092
0.45372178523389556
0.5278651936071302
0.5219580511595618
0.46724764796923085
0.5396742199823692
0.6003210388980322
0.5337724717060184
0.6710976003182687
0.6668915373641702
0.6104133574430806
0.6794823124376858
0.7402037546767043
0.6752951060035998
0.48075374310853725
0.5514359484703976
0.5455642071125194
0.4941654116454928
0.6204516220176963
0.5572841157422499
0.7468919646195872
0.6836569963070447
0.8700795154766324
0.9358739704251529
0.9350368845703309
0.8076449356182065
0.8051330951244047
0.8734240309997793
0.8101496753716623
0.9367090566971428
0.3404570828519629
0.4030522973875867
0.39709623426824403
0.227101463726266
0.28813859702004896
0.283795174315576
0.2342160739341626
0.2969563155807201
0.35078485566322753
0.2925258055790307
0.4149895209796309
0.4090194973971507
0.11360081170512676
0.17305408420768836
0.17036984387314377
0.0577207003545983
0.05680446151481812
0.059777750669417096
0.11731654325993898
0.058692857976628
0.17871663080609057
0.17582284844411186
0.12168326617678692
0.1850592859446281
0.24164573387077398
0.18178525236037535
0.06310512005417877
0.0611168484286514
0.127943830120829
0.06697000252092367
0.2492203886361462
0.18844744867510513
0.3611736808798276
0.42688081728097527
0.4209491203445639
0.30586943032816705
0.30141652871972036
0.3714489036820034
0.31024786351644906
0.4327663597308534
