# vtk DataFile Version 3.0
LucasCarvalhoTCC Results
ASCII

DATASET POLYDATA
FIELD FieldData 1
TIME 1 1 double
0.015414675859066232

POINTS 417 float
0.8749999999996735 0.0 0.0
0.9374999999998368 0.0 0.0
0.8124999999995102 0.0 0.0
0.6874999999991838 0.0 0.0
0.5624999999988572 0.0 0.0
0.4374999999988753 0.0 0.0
0.3124999999992381 0.0 0.0
0.1874999999995994 0.0 0.0
0.0624999999998897 0.0 0.0
0.0 0.0 0.0
0.749999999999347 0.0 0.0
0.6249999999990205 0.0 0.0
0.499999999998694 0.0 0.0
0.3749999999990567 0.0 0.0
0.2499999999994194 0.0 0.0
0.1249999999997794 0.0 0.0
1.0 0.0 0.0
1.0 1.0 0.0
1.0 0.1249999999997794 0.0
1.0 0.2499999999994194 0.0
1.0 0.3749999999990567 0.0
1.0 0.499999999998694 0.0
1.0 0.6249999999990205 0.0
1.0 0.749999999999347 0.0
1.0 0.8749999999996735 0.0
1.0 0.0624999999998897 0.0
1.0 0.1874999999995994 0.0
1.0 0.3124999999992381 0.0
1.0 0.4374999999988753 0.0
1.0 0.5624999999988572 0.0
1.0 0.6874999999991838 0.0
1.0 0.8124999999995102 0.0
1.0 0.9374999999998368 0.0
-0.0 1.0 0.0
0.8750000000003563 1.0 0.0
0.7500000000009891 1.0 0.0
0.6250000000015759 1.0 0.0
0.5000000000020591 1.0 0.0
0.3750000000015444 1.0 0.0
0.2500000000010296 1.0 0.0
0.1250000000005148 1.0 0.0
0.9375000000001781 1.0 0.0
0.8125000000006727 1.0 0.0
0.6875000000012825 1.0 0.0
0.5625000000018174 1.0 0.0
0.4375000000018018 1.0 0.0
0.312500000001287 1.0 0.0
0.1875000000007722 1.0 0.0
0.0625000000002574 1.0 0.0
0.0 0.8750000000003563 0.0
0.0 0.7500000000009891 0.0
0.0 0.6250000000015759 0.0
0.0 0.5000000000020591 0.0
0.0 0.3750000000015444 0.0
0.0 0.2500000000010296 0.0
0.0 0.1250000000005148 0.0
0.0 0.9375000000001781 0.0
0.0 0.8125000000006727 0.0
0.0 0.6875000000012825 0.0
0.0 0.5625000000018174 0.0
0.0 0.4375000000018018 0.0
0.0 0.312500000001287 0.0
0.0 0.1875000000007722 0.0
0.0 0.0625000000002574 0.0
0.5647364308662526 0.446732401698651 0.0
0.2354892605327167 0.5800652382235558 0.0
0.287250702605353 0.3933735249345629 0.0
0.1177446302663583 0.5400326191128075 0.0
0.1436253513026765 0.1966867624672815 0.0
0.2613699815690348 0.4867193815790594 0.0
0.1306849907845174 0.3683596907900445 0.0
0.4259935667358028 0.420052963316607 0.0
0.5323682154341558 0.7233662008493256 0.0
0.3677446302673879 0.7900326191117779 0.0
0.3968690985015953 0.6050427912141925 0.0
0.5323682154324733 0.2233662008493255 0.0
0.3379967833676111 0.2100264816583035 0.0
0.183872315133694 0.7700163095563834 0.0
0.7823682154331263 0.4733662008486725 0.0
0.7661841077170577 0.7366831004243363 0.0
0.7661841077162367 0.2366831004243725 0.0
0.1766169453995375 0.5600489286681817 0.0
0.1242148105254379 0.454196154951426 0.0
0.1960274861767761 0.4275395361845519 0.0
0.2484296210508757 0.5333923099013076 0.0
0.1863222157881568 0.4937942324263668 0.0
0.05887231513317917 0.5200163095574333 0.0
0.0653424953922587 0.3091798453955371 0.0
0.06210740526271893 0.4145980774764852 0.0
0.07181267565133824 0.09834338123364073 0.0
0.1371551710435969 0.282523226628663 0.0
0.06857758552179846 0.2037616133145889 0.0
0.2154380269540147 0.2950301437009222 0.0
0.2743103420871938 0.4400464532568111 0.0
0.2057327565653954 0.361284839942737 0.0
0.3566221346705779 0.406713244125585 0.0
0.411431332618699 0.5125478772653997 0.0
0.3291195400353151 0.5458810863966259 0.0
0.3428708373529465 0.4762971652611054 0.0
0.4953649988010277 0.433392682507629 0.0
0.5485523231502042 0.5850493012739884 0.0
0.4646186569678755 0.664204496031759 0.0
0.4799918278844516 0.548798589269694 0.0
0.5161841077181075 0.8616831004246628 0.0
0.4338723151347235 0.895016309555889 0.0
0.3823068643844916 0.6975377051629852 0.0
0.4492454860512995 0.779610402793824 0.0
0.3016169454000523 0.6850489286676669 0.0
0.3153682427176836 0.6154650075321464 0.0
0.3819951750517069 0.3150397224874552 0.0
0.4351824994000422 0.2166963412538145 0.0
0.548552323149363 0.3350493012739882 0.0
0.465273749100535 0.3250445118807217 0.0
0.2408110673351438 0.2033566220627925 0.0
0.2987166010028608 0.3050349330941887 0.0
0.2939983916835152 0.1050132408291517 0.0
0.1829055336674616 0.1016783110313962 0.0
0.5161841077155837 0.1116831004246628 0.0
0.4050912496995495 0.1083481706269072 0.0
0.2169361575673618 0.8850081547781917 0.0
0.2758084727005409 0.7800244643340807 0.0
0.3254042363510427 0.8900122321670404 0.0
0.09193615756684699 0.7600081547786863 0.0
0.1084680787836809 0.880004077389274 0.0
0.1508084727000262 0.6550244643345955 0.0
0.07540423635001309 0.6400122321680856 0.0
0.2262127090500392 0.6700366965011312 0.0
0.6492761615756067 0.7300246506368309 0.0
0.7580920538590235 0.8683415502121681 0.0
0.6371380807885914 0.8650123253184154 0.0
0.6735523231496894 0.4600493012736618 0.0
0.7742761615750919 0.6050246506365045 0.0
0.661414242362648 0.5950369759552463 0.0
0.8911841077165632 0.4866831004236832 0.0
0.8830920538585288 0.7433415502118417 0.0
0.887138080787546 0.6150123253177625 0.0
0.8790460269294426 0.871670775105921 0.0
0.649276161574355 0.230024650636849 0.0
0.7742761615746815 0.3550246506365225 0.0
0.6614142423620222 0.3450369759552553 0.0
0.7580920538577918 0.1183415502121862 0.0
0.6371380807866877 0.1150123253184245 0.0
0.8830920538581184 0.2433415502118959 0.0
0.879046026928896 0.1216707751059828 0.0
0.8871380807873408 0.3650123253177896 0.0
0.2060531029661271 0.5700570834458687 0.0
0.1814695805938472 0.5269215805472742 0.0
0.2173759184195163 0.5135932711638371 0.0
0.2419594407917962 0.5567287740624317 0.0
0.2117145106928217 0.5418251773048528 0.0
0.1471807878329479 0.5500407738904947 0.0
0.1209797203958981 0.4971143870321167 0.0
0.1552685131567973 0.4739951936888964 0.0
0.1512246504948726 0.5120179837896954 0.0
0.1274499006549776 0.4112779228707353 0.0
0.1633562384806467 0.3979496134872982 0.0
0.1911748509824664 0.4606668843054593 0.0
0.159312375818722 0.4359724035880972 0.0
0.2286987338729055 0.4571294588818057 0.0
0.2548998013099553 0.5100558457401835 0.0
0.2230373261462109 0.4853613650228214 0.0
0.08830847269976874 0.5300244643351204 0.0
0.06048986019794905 0.4673071935169593 0.0
0.09316110789407842 0.4343971162139556 0.0
0.09073479029692358 0.482210790274538 0.0
0.02943615756658959 0.5100081547797461 0.0
0.03105370263135946 0.3947990387390148 0.0
0.03024493009897453 0.4524035967593805 0.0
0.03267124769612935 0.2795899226982834 0.0
0.06372495032748882 0.3618889614360111 0.0
0.03186247516374441 0.337194480718649 0.0
0.09801374308838805 0.3387697680927908 0.0
0.09558742549123322 0.3865834421533731 0.0
0.06696004045702858 0.256470729355063 0.0
0.1028663782826977 0.2431424199716259 0.0
0.1339200809140572 0.3254414587093538 0.0
0.1004400606855429 0.2909560940322084 0.0
0.03428879276089923 0.1643808066575518 0.0
0.03348002022851429 0.2219853646779176 0.0
0.03590633782566912 0.04917169061682036 0.0
0.07019513058656834 0.1510524972741148 0.0
0.03509756529328417 0.1067762486371861 0.0
0.1077190134770074 0.1475150718504611 0.0
0.1403902611731367 0.2396049945479723 0.0
0.1052926958798525 0.1953287459110435 0.0
0.2008801213710857 0.3944121880636445 0.0
0.2400215493262946 0.4006656465997741 0.0
0.2678401618281143 0.4633829174179352 0.0
0.2343601415996001 0.4288975527407898 0.0
0.1714439638044962 0.3219040332857001 0.0
0.1674001011425715 0.3599268233864991 0.0
0.1795316891283456 0.2458584530841018 0.0
0.2105853917597051 0.3281574918218296 0.0
0.1754878264664209 0.2838812431849009 0.0
0.2513443647796839 0.3442018343177425 0.0
0.2807805223462734 0.416709989095687 0.0
0.2456829570529892 0.3724337404587583 0.0
0.3219364186379655 0.4000433845300739 0.0
0.3497464860117622 0.4415052046933452 0.0
0.3085905897200701 0.4581718092589582 0.0
0.3152635041790178 0.4291075968945161 0.0
0.3913078507031904 0.413383103721096 0.0
0.4187124496772509 0.4663004202910034 0.0
0.3771510849858227 0.4944225212632526 0.0
0.3842294678445065 0.4539028124921743 0.0
0.4041502155601472 0.5587953342397961 0.0
0.3629943192684552 0.5754619388054092 0.0
0.3359951886941308 0.5110891258288657 0.0
0.370072702127139 0.5349422300343308 0.0
0.2952447608021749 0.5163002339878426 0.0
0.3019176752611226 0.4872360216234005 0.0
0.4606792827684152 0.426722822912118 0.0
0.4876784133427396 0.4910956358886616 0.0
0.4457115802515753 0.5306732332675469 0.0
0.4531954315099953 0.4786980280898325 0.0
0.5300507148336402 0.44006254210314 0.0
0.5566443770082283 0.5158908514863196 0.0
0.5142720755173279 0.5669239452718412 0.0
0.522161395175484 0.5034932436874906 0.0
0.54046026929218 0.654207751061657 0.0
0.4984934362010157 0.6937853484405423 0.0
0.4723052424261636 0.6065015426507265 0.0
0.5063827558591718 0.6303546468561917 0.0
0.4307438777347354 0.6346236436229757 0.0
0.4382277289931554 0.5826484384452614 0.0
0.4569320715095875 0.7219074494127915 0.0
0.4157761752178956 0.7385740539784046 0.0
0.3895879814430434 0.6512902481885888 0.0
0.4232600264763154 0.6865988488006901 0.0
0.5242761615761317 0.7925246506369942 0.0
0.4827147968847035 0.8206467516092434 0.0
0.4906041165428595 0.7572160500248929 0.0
0.5080920538600833 0.9308415502123314 0.0
0.4669361575683914 0.9475081547779445 0.0
0.4415589005930115 0.8373133561748565 0.0
0.4748254772265474 0.884077453193594 0.0
0.4008084727010557 0.8425244643338334 0.0
0.3750257473259397 0.7437851621373816 0.0
0.4082923239594756 0.7905492591561191 0.0
0.3222438913764993 0.5806730469643862 0.0
0.2818989318842797 0.574428658716727 0.0
0.2885718463432273 0.5453644463522848 0.0
0.3488375535510876 0.6565013563475658 0.0
0.3559159364097714 0.6159816475764875 0.0
0.3346807878337201 0.7375407738897224 0.0
0.308492594058868 0.6502569680999066 0.0
0.3417591706924039 0.6970210651186441 0.0
0.2685531029663845 0.6325570834456113 0.0
0.2752260174253321 0.6034928710811692 0.0
0.4803193739507813 0.3792185971941754 0.0
0.506913036124949 0.3300469065773549 0.0
0.5566443770078078 0.3908908514863196 0.0
0.5184818754792946 0.3850547243402475 0.0
0.4039943708937548 0.3675463429020311 0.0
0.4236344620761209 0.3200421171840885 0.0
0.4421568724222681 0.3733824700481033 0.0
0.359995979209659 0.2625331020728794 0.0
0.3865896413838267 0.213361411456059 0.0
0.4502281242502886 0.2708704265672681 0.0
[...]
POINT_DATA 417

SCALARS Temperature float 1

LOOKUP_TABLE Temperature
0.0
0.0
0.0
0.0
0.0
0.0
0.0
0.0
0.0
0.0
0.0
0.0
0.0
0.0
0.0
0.0
0.037783948820712114
1.0
0.12901887383526298
0.2480860604813611
0.3704523495326858
0.4943343830035527
0.6194663540544789
0.745654398365548
0.8726221539350874
0.07473876778531262
0.1878127965465404
0.3090447635469068
0.43222714968780407
0.5567549152617245
0.6824432766342904
0.809061967411664
0.9362859814642516
1.0
1.0
1.0
1.0
1.0
1.0
1.0
1.0
1.0
1.0
1.0
1.0
1.0
1.0
1.0
1.0
0.8724496624700842
0.7452932262104246
0.6188553523043558
0.49335034754037854
0.36886736588385033
0.24531341534975565
0.12246573116584977
0.9361985313454332
0.8087999801307686
0.6819678636111359
0.5559786469841886
0.43098402085964227
0.3069852084729945
0.18381973929528356
0.06120810047523107
0.440589760373702
0.5736825573192768
0.3872054799868093
0.5334542618277707
0.19286934422758226
0.48015862476316723
0.36230880027626733
0.4138417554458572
0.7184477751551508
0.7860149822782736
0.5988905874054096
0.21945715073349503
0.20607614543332933
0.7656308181955067
0.46755369366577343
0.7320787197262004
0.23348495009190504
0.5535537032045665
0.4476454422818201
0.42111968501011016
0.5268521618005352
0.48719468959505136
0.5133848818276245
0.30371346115759995
0.4082039016460097
0.09633330692502085
0.27740455711765927
0.19981171576217924
0.2897859676298571
0.43361537875894507
0.35532428888468065
0.4005151802158805
0.5060885377663347
0.5394129161385698
0.4698065187283224
0.42720043554266446
0.5789063123935873
0.6585760254846357
0.542457283018185
0.8589555781981023
0.8929010216466597
0.6922240827397149
0.7754568625467486
0.6795584668150104
0.6093353453689845
0.3096709563899924
0.21273435344795416
0.3297168304599099
0.3196701998746824
0.1994584407069506
0.2997111489531605
0.10291505009490712
0.09961655730829012
0.10961677408197326
0.10624045809610312
0.8826661935653812
0.7758178493896206
0.887781871298203
0.7554555203012279
0.8775554334197915
0.6491619255635481
0.6339972543180058
0.6643449860840588
0.7252652172312916
0.8657998315822459
0.8623784452749205
0.4540633659671157
0.5992569615501121
0.5890814886027503
0.481000038314323
0.7388893851193478
0.6093899139127112
0.8692129707474225
0.2263408558810685
0.3501525227439821
0.33988625898536223
0.11699468306214887
0.1131245257244996
0.24093237979026425
0.12199103938524627
0.36041874569592525
0.5636138971756076
0.5203388091532305
0.5070093716300171
0.5502490600412273
0.5352861089441909
0.5435037299129345
0.49048970980574325
0.4674066478050733
0.5054068554001846
0.404919722101496
0.3916862340684852
0.45412198676446575
0.42950050814292146
0.45061100315991465
0.5034862564972896
0.4787841767143629
0.5234150996294009
0.4607045447292587
0.42791128492362146
0.4755889352293031
0.5033632872220242
0.38852280306507553
0.4458363493042633
0.2744907287645041
0.3558770887259047
0.3314130469754131
0.3329851340277583
0.3803789135421799
0.25169829476099215
0.2385738338881056
0.31980633668265257
0.2857204247905707
0.16111267631682338
0.21773319988932635
0.04815338927612481
0.14803152188302846
0.1045976684080595
0.14456409953322005
0.23510085699793198
0.19152673861781955
0.38818583171209453
0.3944224862552485
0.45686822356242307
0.42248838892988866
0.31631918631552336
0.3539614271982018
0.24126934538367
0.32252748733091624
0.2787618599814589
0.33842812669289457
0.41039292994635146
0.3664002657306635
0.3938560924561012
0.43512144175631295
0.4516989811096115
0.42275102542304743
0.4071738575663992
0.4598962360050323
0.4879363531946206
0.4475025388452737
0.5524204921285719
0.5691245196783583
0.5045704039752388
0.5284770994318335
0.509758012069571
0.4807009203016558
0.4205173720206092
0.48471950182630147
0.5242624676802583
0.4723021404449077
0.4338910630493536
0.5095831927257349
0.5606720937068196
0.4971471669769134
0.6485361703636805
0.688490191770813
0.600412539188176
0.6244586092884782
0.6287085045659613
0.5763994006028971
0.7169316555796063
0.7338021381584698
0.6454939214761787
0.6811807199570283
0.7886040797876487
0.817178542190381
0.7527414982686345
0.929443039431999
0.9464385205327992
0.8341239963514386
0.8817599953207396
0.8394171176536969
0.7390693835500497
0.7865543186436069
0.5743328835042648
0.5680422128342583
0.5388694107746651
0.6507295365997123
0.6098774161397719
0.7327231414118182
0.6444136421268007
0.6916825707073626
0.6265377568085633
0.5972630718868703
0.3733534214196955
0.3246869077066492
0.38506633082753244
0.3792049472964231
0.36167739837104296
0.3146653308431416
0.36751122489635246
0.2578095410582758
0.20939897697963764
0.2661365077386998
0.26196691090181495
0.21608562993562022
0.2745217142413048
0.2703205383731162
0.35003599109354344
0.30468695704766713
0.35584978645608045
0.29474109118001224
0.344227667797452
0.19616133292987237
0.2495230720833087
0.24539046817737345
0.20276323308866534
0.2536622941044324
0.1494971411536962
0.10126332802085661
0.15445205422218478
0.15197106304102168
0.09797348026756768
0.14702864926046338
0.04979286363278532
0.048972400813083794
0.05144010969105321
0.05061521844563099
0.15944318758396547
0.10791984494184341
0.16449732865576355
0.1619598424319629
0.10457333672349922
0.15694187277528296
0.05310161900902398
0.05226846447504873
0.0547917649622955
0.053941629088027146
0.9438757212469817
0.8903410950854008
0.9451569681095582
0.9413145811206853
0.8852234906136864
0.9425948891843219
0.82409307040981
0.7707229555546838
0.8317522251916946
0.8279216769140693
0.7809161569482304
0.8355841261302088
0.9387558109343181
0.8801101595467881
0.9400348873652855
0.8750019739191861
0.9374771966283992
0.750372644383652
0.8164420701781416
0.8126198569758818
0.7605416444226886
0.8202665043527715
0.6946308555595271
0.6415765821370795
0.7073113865395068
0.7009690624072615
0.6264234249102357
0.6882970631930602
0.5735772675165864
0.5647743871881858
0.5912007814843219
0.5823865900999984
0.7200078202101917
0.6719493078049827
0.7263602393269007
0.65675208003878
0.7136574237901515
0.608859501235634
0.6000276809494917
0.6176987653198361
0.8606667338335834
0.9311560805525045
0.9302992997452579
0.7218556916296521
0.7937292571180417
0.7911662701848164
0.7286734083095641
0.7988517406216425
0.8640897810482596
0.7962915283441834
0.9328688670660475
0.9320127692585338
0.5839836405881645
0.6570353733492243
0.6527834131514043
0.4473225822230756
0.5214225861103432
0.5155102827589779
0.4608095545886458
0.5332533599734748
0.5941789995270859
0.527340686333173
0.6655462308938833
0.66128329763071
0.6043289691251266
0.6740153238900888
0.7354951586335714
0.669784907866938
0.4742870764494136
0.5450438987218211
0.5391563503941672
0.48768402551754464
0.6144362778588245
0.5509109613076351
0.7422760604064899
0.6782351479162556
0.8675077802131984
0.9345777585791697
0.933723960280478
0.803973450998626
0.8014086470485233
0.8709234378516612
0.8065204805020137
0.9354302084124224
0.33478796430606644
0.396880543944904
0.3909648450978297
0.2228740562973922
0.28305205221903545
0.2787674568611796
0.22987285973959556
0.29175192224016544
0.34501012293830485
0.2873803857680145
0.4087421656278766
0.4028090270977943
0.11134577696739581
0.16971113033458504
0.16707649575084746
0.0565559835127196
0.05565901260101133
0.05856931609387664
0.11498670633429213
0.05750757344422178
0.1752682538234168
0.1724285314263304
0.11926391687941561
0.18149092325513316
0.23718143288754875
0.17827904136665731
0.06182486831927725
0.05987958473770876
0.1253936805448046
0.06560657372429678
0.24463420037763622
0.18481486633340213
0.35529765511117334
0.4205671152545239
0.41466714579541497
0.30054884731746145
0.29615342233815034
0.36548070663702975
0.3048727300732915
0.42642446078379614
