# vtk DataFile Version 3.0
LucasCarvalhoTCC Results
ASCII

DATASET POLYDATA
FIELD FieldData 1
TIME 1 1 double
0.015414675859066232

POINTS 417 float
0.8749999999996735 0.0 0.0
0.9374999999998368 0.0 0.0
0.8124999999995102 0.0 0.0
0.6874999999991838 0.0 0.0
0.5624999999988572 0.0 0.0
0.4374999999988753 0.0 0.0
0.3124999999992381 0.0 0.0
0.1874999999995994 0.0 0.0
0.0624999999998897 0.0 0.0
0.0 0.0 0.0
0.749999999999347 0.0 0.0
0.6249999999990205 0.0 0.0
0.499999999998694 0.0 0.0
0.3749999999990567 0.0 0.0
0.2499999999994194 0.0 0.0
0.1249999999997794 0.0 0.0
1.0 0.0 0.0
1.0 1.0 0.0
1.0 0.1249999999997794 0.0
1.0 0.2499999999994194 0.0
1.0 0.3749999999990567 0.0
1.0 0.499999999998694 0.0
1.0 0.6249999999990205 0.0
1.0 0.749999999999347 0.0
1.0 0.8749999999996735 0.0
1.0 0.0624999999998897 0.0
1.0 0.1874999999995994 0.0
1.0 0.3124999999992381 0.0
1.0 0.4374999999988753 0.0
1.0 0.5624999999988572 0.0
1.0 0.6874999999991838 0.0
1.0 0.8124999999995102 0.0
1.0 0.9374999999998368 0.0
-0.0 1.0 0.0
0.8750000000003563 1.0 0.0
0.7500000000009891 1.0 0.0
0.6250000000015759 1.0 0.0
0.5000000000020591 1.0 0.0
0.3750000000015444 1.0 0.0
0.2500000000010296 1.0 0.0
0.1250000000005148 1.0 0.0
0.9375000000001781 1.0 0.0
0.8125000000006727 1.0 0.0
0.6875000000012825 1.0 0.0
0.5625000000018174 1.0 0.0
0.4375000000018018 1.0 0.0
0.312500000001287 1.0 0.0
0.1875000000007722 1.0 0.0
0.0625000000002574 1.0 0.0
0.0 0.8750000000003563 0.0
0.0 0.7500000000009891 0.0
0.0 0.6250000000015759 0.0
0.0 0.5000000000020591 0.0
0.0 0.3750000000015444 0.0
0.0 0.2500000000010296 0.0
0.0 0.1250000000005148 0.0
0.0 0.9375000000001781 0.0
0.0 0.8125000000006727 0.0
0.0 0.6875000000012825 0.0
0.0 0.5625000000018174 0.0
0.0 0.4375000000018018 0.0
0.0 0.312500000001287 0.0
0.0 0.1875000000007722 0.0
0.0 0.0625000000002574 0.0
0.5647364308662526 0.446732401698651 0.0
0.2354892605327167 0.5800652382235558 0.0
0.287250702605353 0.3933735249345629 0.0
0.1177446302663583 0.5400326191128075 0.0
0.1436253513026765 0.1966867624672815 0.0
0.2613699815690348 0.4867193815790594 0.0
0.1306849907845174 0.3683596907900445 0.0
0.4259935667358028 0.420052963316607 0.0
0.5323682154341558 0.7233662008493256 0.0
0.3677446302673879 0.7900326191117779 0.0
0.3968690985015953 0.6050427912141925 0.0
0.5323682154324733 0.2233662008493255 0.0
0.3379967833676111 0.2100264816583035 0.0
0.183872315133694 0.7700163095563834 0.0
0.7823682154331263 0.4733662008486725 0.0
0.7661841077170577 0.7366831004243363 0.0
0.7661841077162367 0.2366831004243725 0.0
0.1766169453995375 0.5600489286681817 0.0
0.1242148105254379 0.454196154951426 0.0
0.1960274861767761 0.4275395361845519 0.0
0.2484296210508757 0.5333923099013076 0.0
0.1863222157881568 0.4937942324263668 0.0
0.05887231513317917 0.5200163095574333 0.0
0.0653424953922587 0.3091798453955371 0.0
0.06210740526271893 0.4145980774764852 0.0
0.07181267565133824 0.09834338123364073 0.0
0.1371551710435969 0.282523226628663 0.0
0.06857758552179846 0.2037616133145889 0.0
0.2154380269540147 0.2950301437009222 0.0
0.2743103420871938 0.4400464532568111 0.0
0.2057327565653954 0.361284839942737 0.0
0.3566221346705779 0.406713244125585 0.0
0.411431332618699 0.5125478772653997 0.0
0.3291195400353151 0.5458810863966259 0.0
0.3428708373529465 0.4762971652611054 0.0
0.4953649988010277 0.433392682507629 0.0
0.5485523231502042 0.5850493012739884 0.0
0.4646186569678755 0.664204496031759 0.0
0.4799918278844516 0.548798589269694 0.0
0.5161841077181075 0.8616831004246628 0.0
0.4338723151347235 0.895016309555889 0.0
0.3823068643844916 0.6975377051629852 0.0
0.4492454860512995 0.779610402793824 0.0
0.3016169454000523 0.6850489286676669 0.0
0.3153682427176836 0.6154650075321464 0.0
0.3819951750517069 0.3150397224874552 0.0
0.4351824994000422 0.2166963412538145 0.0
0.548552323149363 0.3350493012739882 0.0
0.465273749100535 0.3250445118807217 0.0
0.2408110673351438 0.2033566220627925 0.0
0.2987166010028608 0.3050349330941887 0.0
0.2939983916835152 0.1050132408291517 0.0
0.1829055336674616 0.1016783110313962 0.0
0.5161841077155837 0.1116831004246628 0.0
0.4050912496995495 0.1083481706269072 0.0
0.2169361575673618 0.8850081547781917 0.0
0.2758084727005409 0.7800244643340807 0.0
0.3254042363510427 0.8900122321670404 0.0
0.09193615756684699 0.7600081547786863 0.0
0.1084680787836809 0.880004077389274 0.0
0.1508084727000262 0.6550244643345955 0.0
0.07540423635001309 0.6400122321680856 0.0
0.2262127090500392 0.6700366965011312 0.0
0.6492761615756067 0.7300246506368309 0.0
0.7580920538590235 0.8683415502121681 0.0
0.6371380807885914 0.8650123253184154 0.0
0.6735523231496894 0.4600493012736618 0.0
0.7742761615750919 0.6050246506365045 0.0
0.661414242362648 0.5950369759552463 0.0
0.8911841077165632 0.4866831004236832 0.0
0.8830920538585288 0.7433415502118417 0.0
0.887138080787546 0.6150123253177625 0.0
0.8790460269294426 0.871670775105921 0.0
0.649276161574355 0.230024650636849 0.0
0.7742761615746815 0.3550246506365225 0.0
0.6614142423620222 0.3450369759552553 0.0
0.7580920538577918 0.1183415502121862 0.0
0.6371380807866877 0.1150123253184245 0.0
0.8830920538581184 0.2433415502118959 0.0
0.879046026928896 0.1216707751059828 0.0
0.8871380807873408 0.3650123253177896 0.0
0.2060531029661271 0.5700570834458687 0.0
0.1814695805938472 0.5269215805472742 0.0
0.2173759184195163 0.5135932711638371 0.0
0.2419594407917962 0.5567287740624317 0.0
0.2117145106928217 0.5418251773048528 0.0
0.1471807878329479 0.5500407738904947 0.0
0.1209797203958981 0.4971143870321167 0.0
0.1552685131567973 0.4739951936888964 0.0
0.1512246504948726 0.5120179837896954 0.0
0.1274499006549776 0.4112779228707353 0.0
0.1633562384806467 0.3979496134872982 0.0
0.1911748509824664 0.4606668843054593 0.0
0.159312375818722 0.4359724035880972 0.0
0.2286987338729055 0.4571294588818057 0.0
0.2548998013099553 0.5100558457401835 0.0
0.2230373261462109 0.4853613650228214 0.0
0.08830847269976874 0.5300244643351204 0.0
0.06048986019794905 0.4673071935169593 0.0
0.09316110789407842 0.4343971162139556 0.0
0.09073479029692358 0.482210790274538 0.0
0.02943615756658959 0.5100081547797461 0.0
0.03105370263135946 0.3947990387390148 0.0
0.03024493009897453 0.4524035967593805 0.0
0.03267124769612935 0.2795899226982834 0.0
0.06372495032748882 0.3618889614360111 0.0
0.03186247516374441 0.337194480718649 0.0
0.09801374308838805 0.3387697680927908 0.0
0.09558742549123322 0.3865834421533731 0.0
0.06696004045702858 0.256470729355063 0.0
0.1028663782826977 0.2431424199716259 0.0
0.1339200809140572 0.3254414587093538 0.0
0.1004400606855429 0.2909560940322084 0.0
0.03428879276089923 0.1643808066575518 0.0
0.03348002022851429 0.2219853646779176 0.0
0.03590633782566912 0.04917169061682036 0.0
0.07019513058656834 0.1510524972741148 0.0
0.03509756529328417 0.1067762486371861 0.0
0.1077190134770074 0.1475150718504611 0.0
0.1403902611731367 0.2396049945479723 0.0
0.1052926958798525 0.1953287459110435 0.0
0.2008801213710857 0.3944121880636445 0.0
0.2400215493262946 0.4006656465997741 0.0
0.2678401618281143 0.4633829174179352 0.0
0.2343601415996001 0.4288975527407898 0.0
0.1714439638044962 0.3219040332857001 0.0
0.1674001011425715 0.3599268233864991 0.0
0.1795316891283456 0.2458584530841018 0.0
0.2105853917597051 0.3281574918218296 0.0
0.1754878264664209 0.2838812431849009 0.0
0.2513443647796839 0.3442018343177425 0.0
0.2807805223462734 0.416709989095687 0.0
0.2456829570529892 0.3724337404587583 0.0
0.3219364186379655 0.4000433845300739 0.0
0.3497464860117622 0.4415052046933452 0.0
0.3085905897200701 0.4581718092589582 0.0
0.3152635041790178 0.4291075968945161 0.0
0.3913078507031904 0.413383103721096 0.0
0.4187124496772509 0.4663004202910034 0.0
0.3771510849858227 0.4944225212632526 0.0
0.3842294678445065 0.4539028124921743 0.0
0.4041502155601472 0.5587953342397961 0.0
0.3629943192684552 0.5754619388054092 0.0
0.3359951886941308 0.5110891258288657 0.0
0.370072702127139 0.5349422300343308 0.0
0.2952447608021749 0.5163002339878426 0.0
0.3019176752611226 0.4872360216234005 0.0
0.4606792827684152 0.426722822912118 0.0
0.4876784133427396 0.4910956358886616 0.0
0.4457115802515753 0.5306732332675469 0.0
0.4531954315099953 0.4786980280898325 0.0
0.5300507148336402 0.44006254210314 0.0
0.5566443770082283 0.5158908514863196 0.0
0.5142720755173279 0.5669239452718412 0.0
0.522161395175484 0.5034932436874906 0.0
0.54046026929218 0.654207751061657 0.0
0.4984934362010157 0.6937853484405423 0.0
0.4723052424261636 0.6065015426507265 0.0
0.5063827558591718 0.6303546468561917 0.0
0.4307438777347354 0.6346236436229757 0.0
0.4382277289931554 0.5826484384452614 0.0
0.4569320715095875 0.7219074494127915 0.0
0.4157761752178956 0.7385740539784046 0.0
0.3895879814430434 0.6512902481885888 0.0
0.4232600264763154 0.6865988488006901 0.0
0.5242761615761317 0.7925246506369942 0.0
0.4827147968847035 0.8206467516092434 0.0
0.4906041165428595 0.7572160500248929 0.0
0.5080920538600833 0.9308415502123314 0.0
0.4669361575683914 0.9475081547779445 0.0
0.4415589005930115 0.8373133561748565 0.0
0.4748254772265474 0.884077453193594 0.0
0.4008084727010557 0.8425244643338334 0.0
0.3750257473259397 0.7437851621373816 0.0
0.4082923239594756 0.7905492591561191 0.0
0.3222438913764993 0.5806730469643862 0.0
0.2818989318842797 0.574428658716727 0.0
0.2885718463432273 0.5453644463522848 0.0
0.3488375535510876 0.6565013563475658 0.0
0.3559159364097714 0.6159816475764875 0.0
0.3346807878337201 0.7375407738897224 0.0
0.308492594058868 0.6502569680999066 0.0
0.3417591706924039 0.6970210651186441 0.0
0.2685531029663845 0.6325570834456113 0.0
0.2752260174253321 0.6034928710811692 0.0
0.4803193739507813 0.3792185971941754 0.0
0.506913036124949 0.3300469065773549 0.0
0.5566443770078078 0.3908908514863196 0.0
0.5184818754792946 0.3850547243402475 0.0
0.4039943708937548 0.3675463429020311 0.0
0.4236344620761209 0.3200421171840885 0.0
0.4421568724222681 0.3733824700481033 0.0
0.359995979209659 0.2625331020728794 0.0
0.3865896413838267 0.213361411456059 0.0
0.4502281242502886 0.2708704265672681 0.0
[...]
POINT_DATA 417

SCALARS Temperature float 1

LOOKUP_TABLE Temperature
0.0
0.0
0.0
0.0
0.0
0.0
0.0
0.0
0.0
0.0
0.0
0.0
0.0
0.0
0.0
0.0
0.034058425312680995
1.0
0.11677363788118396
0.22637947684993243
0.34219026155949406
0.4636470579239864
0.5909874106803477
0.7237696147991933
0.860754225854971
0.0674759135794099
0.1705898412853685
0.2836010924473666
0.40218995504418165
0.5265907341175519
0.6567573089445191
0.7918437710216071
0.9302378319049738
1.0
1.0
1.0
1.0
1.0
1.0
1.0
1.0
1.0
1.0
1.0
1.0
1.0
1.0
1.0
1.0
0.8605551964326337
0.7234160616682102
0.5904341552568858
0.462762671756187
0.34080642142896966
0.22396051277935233
0.11095124694729841
0.9301229441331413
0.7915689031768438
0.6563137075177542
0.5258974503526183
0.40109273707549675
0.28180924649052697
0.16707858068200415
0.05534274979345381
0.4104643537995519
0.5439875413175576
0.35853027589411424
0.5030796398735184
0.1754257331166624
0.44966654322968347
0.3345455345624184
0.38434066158933083
0.69479778660406
0.7670236278408415
0.5698137098749412
0.19994670418705282
0.187593991746958
0.7451533711453744
0.4370415937720913
0.7092396461804319
0.21288893389761138
0.5234630437586743
0.4174993433125682
0.3914914276108771
0.4964435212143549
0.456682934061463
0.4828383337076897
0.27874138175207996
0.378880832436242
0.08719381737033405
0.2539755275937222
0.1818197599620432
0.26563687684088955
0.40372731127255823
0.32785314060109605
0.3714253643184461
0.47551626450881124
0.5091063153160065
0.4393841360929705
0.3973546522751333
0.549198569547017
0.6317400228373313
0.5121233339355622
0.8458695623653933
0.8828315521231804
0.6671151539806952
0.7556752217715995
0.653805237125928
0.5806045761035916
0.2843520308334979
0.1937376163007252
0.30333874044042364
0.2938111397496292
0.18149141091908397
0.2749580949147215
0.0931769681581219
0.09018100805046667
0.09926097084669588
0.0961963305038805
0.8716860901119909
0.7560735788647813
0.8772576738705656
0.7342666616802644
0.8661197318445607
0.6219320461432305
0.6061375519768911
0.6377969858873946
0.7020156007568886
0.8532812102148899
0.8495721292805526
0.4237264149102501
0.5701469783370137
0.5596577423598312
0.4503654354038521
0.7165514009086787
0.5805722565806909
0.8569913254500228
0.2062972143597957
0.3227693416228593
0.31299680023377974
0.10593543767660121
0.10243644805330121
0.2197595933042964
0.11044118391198016
0.33256784686019225
0.5337043162538506
0.4898743106600436
0.47648751587908333
0.5201129339511525
0.5049525039245047
0.5132728533964365
0.4599532211597073
0.43702025526659305
0.47487577779058826
0.3757047723606384
0.3628689919906578
0.42389097119121266
0.3996894608024143
0.42042567404290576
0.4729480881047405
0.44831129690559685
0.49293745268826894
0.4303595465693427
0.3981203264776805
0.44511465293154606
0.4727801366948854
0.3597774969404084
0.4156863307981472
0.25123232421062
0.3283629218333525
0.30499183645389144
0.3065067069985258
0.351931458747937
0.2299308519325903
0.21771837339078054
0.29398406283746
0.261790043047999
0.14624973731019025
0.1983698605014853
0.04352934257522217
0.13428526355661644
0.09469918813726247
0.1311182917501377
0.21450253256394117
0.1741889045056568
0.3594723802981441
0.36553237157188717
0.4265925131736215
0.3928218206623782
0.29067411294455764
0.32654358108566955
0.22022502253700904
0.2965919971799261
0.2552707761993754
0.31171762215224164
0.38103169514872137
0.3384866650330543
0.3649636109167902
0.4051844845509206
0.4214941351169569
0.3930809767819643
0.377867410984019
0.4295412761898851
0.4573905705605618
0.41733413516893236
0.5222759930090506
0.5393029501083525
0.47402481612783326
0.4980469402660552
0.47923131625619214
0.4502086329951962
0.39083681818375315
0.45412459916299863
0.49376094150579997
0.4418053895568357
0.4038956750852326
0.47891075115334325
0.530602311543249
0.46649544217233657
0.6212048654549748
0.66313468310621
0.5713444503922196
0.5961776613705256
0.6006287921856379
0.5467094964077441
0.6932245866367535
0.7111631643788409
0.6181045030721708
0.6554715942251147
0.7697775020217504
0.8005989089873985
0.7313374085967215
0.9227381070948185
0.9413299976067482
0.8189380858923474
0.8706867823633446
0.8246756677749874
0.716782249186381
0.767602080792425
0.5446231946062754
0.5382292132510638
0.5085580925620168
0.6235658035380676
0.5811535535518025
0.7100362423586952
0.6170158389073771
0.6665512477459514
0.5984183611110016
0.5681720302890072
0.34510429748735316
0.29856520161352573
0.35638566262593446
0.3507342639624739
0.3338975562862526
0.2890741212106143
0.33949334221301003
0.2356200505627376
0.19065939290024955
0.24339185138684732
0.23949843405940718
0.1968320249659213
0.2512321531694259
0.24730214176859092
0.32276496006106375
0.2796490884519787
0.32830720231439026
0.27026997343571774
0.3172284513950087
0.17845681455886764
0.22789517947460375
0.22404233151042044
0.18453842363428452
0.23175376264806952
0.13562907113747757
0.09167698138706057
0.14015733155154808
0.1378895356625005
0.08868698752412747
0.13337320633492972
0.045017421721863723
0.04427342182000364
0.046508464115863526
0.04576211581476572
0.14472019875613024
0.09772082180601122
0.14934169629763772
0.14702127313921765
0.09468274785787255
0.1424334292189501
0.04801086289883316
0.047257614864668875
0.049538089883112146
0.04877005837746059
0.9385298234071153
0.880044368755297
0.9399299370496059
0.9357295797124665
0.8744713635903095
0.9371296583833013
0.8080923123139716
0.7506094733044014
0.8163794502361272
0.8122337156113537
0.7615501547754907
0.8205269433503242
0.9329297789808154
0.86890229266634
0.9343297196032914
0.8633377290947799
0.9315285899967407
0.7288365339874981
0.7998221765572441
0.7956933747617286
0.7397057985440298
0.8039551499735715
0.6696515967059795
0.6140222762724709
0.6830500424539685
0.6763437359084346
0.5982745291799095
0.6629747640826756
0.5438437227866173
0.5348549946438699
0.561896039879682
0.5528601882013249
0.69650422422599
0.6457904847658973
0.7032437969442519
0.6298606465535266
0.6897687948423616
0.5801152185182237
0.5709952355870715
0.5892705345127389
0.8477193131251106
0.924599518915437
0.9236673526539187
0.6984028126469016
0.7752718121308317
0.7725225829635759
0.705627699662033
0.7807731702055647
0.851426429763992
0.778022379090745
0.9264668035008591
0.9255329296087351
0.5543755703116364
0.6300706707479902
0.6256264113295698
0.4170906171291474
0.49087003403195406
0.4849390150965552
0.43037971210259246
0.5027916238605338
0.5649449642533511
0.49683366788558797
0.6390335974230912
0.6344998625181955
0.5753590451500393
0.64789838421275
0.7129408234259761
0.64346549261652
0.44370584988067613
0.514703651347
0.508749062413523
0.45701372292903425
0.5857823807243056
0.5206516809117674
0.7201613169303884
0.6523293764821751
0.8551361099577313
0.9283355363138404
0.9274009065223439
0.7863448158123039
0.7835238545878684
0.8588961653125005
0.7890940314566544
0.9292719120340649
0.30815145712370345
0.367800931785911
0.36208021147349523
0.2030983882476906
0.25920837247396095
0.25520036265525003
0.20955639754571265
0.26735348140933735
0.3178717081903225
0.26325971899760675
0.3792954970932242
0.37354184650074806
0.10082640315978736
0.1540995013668225
0.15169534113514901
0.05112741818516881
0.050319492698966344
0.052938631644662004
0.10412093869736926
0.051983944172531694
0.1591666476405068
0.1565782322740788
0.10798329999470488
0.16483084755020458
0.21629875107495253
0.161908391979234
0.05586147097833037
0.054115451284996494
0.11350575190365977
0.05925708312635458
0.22317956420487783
0.16785527238380032
0.32767579604186337
0.3907941439879046
0.3850509424087079
0.27560141896104784
0.2714779335591455
0.33741501674926644
0.27966618287290135
0.3965104019184381
