# vtk DataFile Version 3.0
LucasCarvalhoTCC Results
ASCII

DATASET POLYDATA
FIELD FieldData 1
TIME 1 1 double
0.015414675859066232

POINTS 417 float
0.8749999999996735 0.0 0.0
0.9374999999998368 0.0 0.0
0.8124999999995102 0.0 0.0
0.6874999999991838 0.0 0.0
0.5624999999988572 0.0 0.0
0.4374999999988753 0.0 0.0
0.3124999999992381 0.0 0.0
0.1874999999995994 0.0 0.0
0.0624999999998897 0.0 0.0
0.0 0.0 0.0
0.749999999999347 0.0 0.0
0.6249999999990205 0.0 0.0
0.499999999998694 0.0 0.0
0.3749999999990567 0.0 0.0
0.2499999999994194 0.0 0.0
0.1249999999997794 0.0 0.0
1.0 0.0 0.0
1.0 1.0 0.0
1.0 0.1249999999997794 0.0
1.0 0.2499999999994194 0.0
1.0 0.3749999999990567 0.0
1.0 0.499999999998694 0.0
1.0 0.6249999999990205 0.0
1.0 0.749999999999347 0.0
1.0 0.8749999999996735 0.0
1.0 0.0624999999998897 0.0
1.0 0.1874999999995994 0.0
1.0 0.3124999999992381 0.0
1.0 0.4374999999988753 0.0
1.0 0.5624999999988572 0.0
1.0 0.6874999999991838 0.0
1.0 0.8124999999995102 0.0
1.0 0.9374999999998368 0.0
-0.0 1.0 0.0
0.8750000000003563 1.0 0.0
0.7500000000009891 1.0 0.0
0.6250000000015759 1.0 0.0
0.5000000000020591 1.0 0.0
0.3750000000015444 1.0 0.0
0.2500000000010296 1.0 0.0
0.1250000000005148 1.0 0.0
0.9375000000001781 1.0 0.0
0.8125000000006727 1.0 0.0
0.6875000000012825 1.0 0.0
0.5625000000018174 1.0 0.0
0.4375000000018018 1.0 0.0
0.312500000001287 1.0 0.0
0.1875000000007722 1.0 0.0
0.0625000000002574 1.0 0.0
0.0 0.8750000000003563 0.0
0.0 0.7500000000009891 0.0
0.0 0.6250000000015759 0.0
0.0 0.5000000000020591 0.0
0.0 0.3750000000015444 0.0
0.0 0.2500000000010296 0.0
0.0 0.1250000000005148 0.0
0.0 0.9375000000001781 0.0
0.0 0.8125000000006727 0.0
0.0 0.6875000000012825 0.0
0.0 0.5625000000018174 0.0
0.0 0.4375000000018018 0.0
0.0 0.312500000001287 0.0
0.0 0.1875000000007722 0.0
0.0 0.0625000000002574 0.0
0.5647364308662526 0.446732401698651 0.0
0.2354892605327167 0.5800652382235558 0.0
0.287250702605353 0.3933735249345629 0.0
0.1177446302663583 0.5400326191128075 0.0
0.1436253513026765 0.1966867624672815 0.0
0.2613699815690348 0.4867193815790594 0.0
0.1306849907845174 0.3683596907900445 0.0
0.4259935667358028 0.420052963316607 0.0
0.5323682154341558 0.7233662008493256 0.0
0.3677446302673879 0.7900326191117779 0.0
0.3968690985015953 0.6050427912141925 0.0
0.5323682154324733 0.2233662008493255 0.0
0.3379967833676111 0.2100264816583035 0.0
0.183872315133694 0.7700163095563834 0.0
0.7823682154331263 0.4733662008486725 0.0
0.7661841077170577 0.7366831004243363 0.0
0.7661841077162367 0.2366831004243725 0.0
0.1766169453995375 0.5600489286681817 0.0
0.1242148105254379 0.454196154951426 0.0
0.1960274861767761 0.4275395361845519 0.0
0.2484296210508757 0.5333923099013076 0.0
0.1863222157881568 0.4937942324263668 0.0
0.05887231513317917 0.5200163095574333 0.0
0.0653424953922587 0.3091798453955371 0.0
0.06210740526271893 0.4145980774764852 0.0
0.07181267565133824 0.09834338123364073 0.0
0.1371551710435969 0.282523226628663 0.0
0.06857758552179846 0.2037616133145889 0.0
0.2154380269540147 0.2950301437009222 0.0
0.2743103420871938 0.4400464532568111 0.0
0.2057327565653954 0.361284839942737 0.0
0.3566221346705779 0.406713244125585 0.0
0.411431332618699 0.5125478772653997 0.0
0.3291195400353151 0.5458810863966259 0.0
0.3428708373529465 0.4762971652611054 0.0
0.4953649988010277 0.433392682507629 0.0
0.5485523231502042 0.5850493012739884 0.0
0.4646186569678755 0.664204496031759 0.0
0.4799918278844516 0.548798589269694 0.0
0.5161841077181075 0.8616831004246628 0.0
0.4338723151347235 0.895016309555889 0.0
0.3823068643844916 0.6975377051629852 0.0
0.4492454860512995 0.779610402793824 0.0
0.3016169454000523 0.6850489286676669 0.0
0.3153682427176836 0.6154650075321464 0.0
0.3819951750517069 0.3150397224874552 0.0
0.4351824994000422 0.2166963412538145 0.0
0.548552323149363 0.3350493012739882 0.0
0.465273749100535 0.3250445118807217 0.0
0.2408110673351438 0.2033566220627925 0.0
0.2987166010028608 0.3050349330941887 0.0
0.2939983916835152 0.1050132408291517 0.0
0.1829055336674616 0.1016783110313962 0.0
0.5161841077155837 0.1116831004246628 0.0
0.4050912496995495 0.1083481706269072 0.0
0.2169361575673618 0.8850081547781917 0.0
0.2758084727005409 0.7800244643340807 0.0
0.3254042363510427 0.8900122321670404 0.0
0.09193615756684699 0.7600081547786863 0.0
0.1084680787836809 0.880004077389274 0.0
0.1508084727000262 0.6550244643345955 0.0
0.07540423635001309 0.6400122321680856 0.0
0.2262127090500392 0.6700366965011312 0.0
0.6492761615756067 0.7300246506368309 0.0
0.7580920538590235 0.8683415502121681 0.0
0.6371380807885914 0.8650123253184154 0.0
0.6735523231496894 0.4600493012736618 0.0
0.7742761615750919 0.6050246506365045 0.0
0.661414242362648 0.5950369759552463 0.0
0.8911841077165632 0.4866831004236832 0.0
0.8830920538585288 0.7433415502118417 0.0
0.887138080787546 0.6150123253177625 0.0
0.8790460269294426 0.871670775105921 0.0
0.649276161574355 0.230024650636849 0.0
0.7742761615746815 0.3550246506365225 0.0
0.6614142423620222 0.3450369759552553 0.0
0.7580920538577918 0.1183415502121862 0.0
0.6371380807866877 0.1150123253184245 0.0
0.8830920538581184 0.2433415502118959 0.0
0.879046026928896 0.1216707751059828 0.0
0.8871380807873408 0.3650123253177896 0.0
0.2060531029661271 0.5700570834458687 0.0
0.1814695805938472 0.5269215805472742 0.0
0.2173759184195163 0.5135932711638371 0.0
0.2419594407917962 0.5567287740624317 0.0
0.2117145106928217 0.5418251773048528 0.0
0.1471807878329479 0.5500407738904947 0.0
0.1209797203958981 0.4971143870321167 0.0
0.1552685131567973 0.4739951936888964 0.0
0.1512246504948726 0.5120179837896954 0.0
0.1274499006549776 0.4112779228707353 0.0
0.1633562384806467 0.3979496134872982 0.0
0.1911748509824664 0.4606668843054593 0.0
0.159312375818722 0.4359724035880972 0.0
0.2286987338729055 0.4571294588818057 0.0
0.2548998013099553 0.5100558457401835 0.0
0.2230373261462109 0.4853613650228214 0.0
0.08830847269976874 0.5300244643351204 0.0
0.06048986019794905 0.4673071935169593 0.0
0.09316110789407842 0.4343971162139556 0.0
0.09073479029692358 0.482210790274538 0.0
0.02943615756658959 0.5100081547797461 0.0
0.03105370263135946 0.3947990387390148 0.0
0.03024493009897453 0.4524035967593805 0.0
0.03267124769612935 0.2795899226982834 0.0
0.06372495032748882 0.3618889614360111 0.0
0.03186247516374441 0.337194480718649 0.0
0.09801374308838805 0.3387697680927908 0.0
0.09558742549123322 0.3865834421533731 0.0
0.06696004045702858 0.256470729355063 0.0
0.1028663782826977 0.2431424199716259 0.0
0.1339200809140572 0.3254414587093538 0.0
0.1004400606855429 0.2909560940322084 0.0
0.03428879276089923 0.1643808066575518 0.0
0.03348002022851429 0.2219853646779176 0.0
0.03590633782566912 0.04917169061682036 0.0
0.07019513058656834 0.1510524972741148 0.0
0.03509756529328417 0.1067762486371861 0.0
0.1077190134770074 0.1475150718504611 0.0
0.1403902611731367 0.2396049945479723 0.0
0.1052926958798525 0.1953287459110435 0.0
0.2008801213710857 0.3944121880636445 0.0
0.2400215493262946 0.4006656465997741 0.0
0.2678401618281143 0.4633829174179352 0.0
0.2343601415996001 0.4288975527407898 0.0
0.1714439638044962 0.3219040332857001 0.0
0.1674001011425715 0.3599268233864991 0.0
0.1795316891283456 0.2458584530841018 0.0
0.2105853917597051 0.3281574918218296 0.0
0.1754878264664209 0.2838812431849009 0.0
0.2513443647796839 0.3442018343177425 0.0
0.2807805223462734 0.416709989095687 0.0
0.2456829570529892 0.3724337404587583 0.0
0.3219364186379655 0.4000433845300739 0.0
0.3497464860117622 0.4415052046933452 0.0
0.3085905897200701 0.4581718092589582 0.0
0.3152635041790178 0.4291075968945161 0.0
0.3913078507031904 0.413383103721096 0.0
0.4187124496772509 0.4663004202910034 0.0
0.3771510849858227 0.4944225212632526 0.0
0.3842294678445065 0.4539028124921743 0.0
0.4041502155601472 0.5587953342397961 0.0
0.3629943192684552 0.5754619388054092 0.0
0.3359951886941308 0.5110891258288657 0.0
0.370072702127139 0.5349422300343308 0.0
0.2952447608021749 0.5163002339878426 0.0
0.3019176752611226 0.4872360216234005 0.0
0.4606792827684152 0.426722822912118 0.0
0.4876784133427396 0.4910956358886616 0.0
0.4457115802515753 0.5306732332675469 0.0
0.4531954315099953 0.4786980280898325 0.0
0.5300507148336402 0.44006254210314 0.0
0.5566443770082283 0.5158908514863196 0.0
0.5142720755173279 0.5669239452718412 0.0
0.522161395175484 0.5034932436874906 0.0
0.54046026929218 0.654207751061657 0.0
0.4984934362010157 0.6937853484405423 0.0
0.4723052424261636 0.6065015426507265 0.0
0.5063827558591718 0.6303546468561917 0.0
0.4307438777347354 0.6346236436229757 0.0
0.4382277289931554 0.5826484384452614 0.0
0.4569320715095875 0.7219074494127915 0.0
0.4157761752178956 0.7385740539784046 0.0
0.3895879814430434 0.6512902481885888 0.0
0.4232600264763154 0.6865988488006901 0.0
0.5242761615761317 0.7925246506369942 0.0
0.4827147968847035 0.8206467516092434 0.0
0.4906041165428595 0.7572160500248929 0.0
0.5080920538600833 0.9308415502123314 0.0
0.4669361575683914 0.9475081547779445 0.0
0.4415589005930115 0.8373133561748565 0.0
0.4748254772265474 0.884077453193594 0.0
0.4008084727010557 0.8425244643338334 0.0
0.3750257473259397 0.7437851621373816 0.0
0.4082923239594756 0.7905492591561191 0.0
0.3222438913764993 0.5806730469643862 0.0
0.2818989318842797 0.574428658716727 0.0
0.2885718463432273 0.5453644463522848 0.0
0.3488375535510876 0.6565013563475658 0.0
0.3559159364097714 0.6159816475764875 0.0
0.3346807878337201 0.7375407738897224 0.0
0.308492594058868 0.6502569680999066 0.0
0.3417591706924039 0.6970210651186441 0.0
0.2685531029663845 0.6325570834456113 0.0
0.2752260174253321 0.6034928710811692 0.0
0.4803193739507813 0.3792185971941754 0.0
0.506913036124949 0.3300469065773549 0.0
0.5566443770078078 0.3908908514863196 0.0
0.5184818754792946 0.3850547243402475 0.0
0.4039943708937548 0.3675463429020311 0.0
0.4236344620761209 0.3200421171840885 0.0
0.4421568724222681 0.3733824700481033 0.0
0.359995979209659 0.2625331020728794 0.0
0.3865896413838267 0.213361411456059 0.0
0.4502281242502886 0.2708704265672681 0.0
[...]
POINT_DATA 417

SCALARS Temperature float 1

LOOKUP_TABLE Temperature
0.0
0.0
0.0
0.0
0.0
0.0
0.0
0.0
0.0
0.0
0.0
0.0
0.0
0.0
0.0
0.0
0.15741869819320825
0.0
0.46485273423678963
0.7617277315286954
0.9443289204596421
1.0043133350413498
0.9397436157500552
0.7504329756488902
0.43608989049446034
0.2907448858332717
0.6261287547213206
0.8681692842829177
0.9897697880294616
0.9876143098851062
0.8606922318130212
0.6089249978241154
0.2316610268498649
0.0
0.0
0.0
0.0
0.0
0.0
0.0
0.0
0.0
0.0
0.0
0.0
0.0
0.0
0.0
0.0
0.437183394515152
0.7500568365637901
0.9382052056037119
1.0018434122715545
0.9390658637691033
0.7511930728311391
0.43832459006817104
0.23406211676367997
0.6092007217276892
0.8597278311839384
0.9855168412820378
0.9860862568243893
0.8607676791750026
0.6103860882527956
0.23491709477551487
0.9919771304365856
0.9744568574299409
0.9550991612770099
0.9943479810627632
0.6323816797431862
0.9998897292883542
0.9310353162025994
0.9763910845858483
0.8027178326489648
0.6640351654884628
0.9568437058085674
0.6959375625114717
0.664721828243559
0.7088978461116267
1.0009624852855838
0.7785030254566933
0.7284866386571185
0.9858969688854177
0.9921160436794232
0.97939385603802
0.9955474308161006
1.000077279536172
0.9998271794189006
0.8549519768779101
0.9717550253111383
0.3550608479184499
0.8113945826653541
0.6492944075758346
0.8317940346611143
0.9858529607379567
0.9232759069508827
0.9657978384174627
1.0008980650092516
0.9922859718832134
0.9985336072550587
0.9850805059232632
0.9747812326858825
0.8936487591549015
0.9929809701811636
0.47798715855276086
0.3762505804488246
0.8443432422942874
0.6879917074411723
0.8627680922968228
0.9470588703211424
0.8647840867075178
0.6804250800657687
0.8938600047044811
0.8796749747526247
0.6488169569325845
0.8490085023438146
0.37645228593840985
0.3657123738498584
0.39790566553813267
0.38716781165264014
0.4073442905138832
0.68691191743398
0.391880629041785
0.7299538898218613
0.42249940581116513
0.9046882614597469
0.9224099371201997
0.8854362486987852
0.790733603469723
0.4585471597970638
0.468281940634516
0.9969690512113056
0.9575222108197832
0.9665894625925462
1.0035592848626878
0.7634227985085742
0.9491871397481494
0.4486709223803264
0.71190662129768
0.9210174122536511
0.9076928832449305
0.4220156941454593
0.4092949672842081
0.7459247534179543
0.4392902230278837
0.9335634507731541
0.9806283130748935
0.9973215497743985
0.9994492003109121
0.98725056258028
0.9931718326860836
0.9900715247772642
1.0005923751922383
0.9976367436669137
0.9997665199052579
0.9689297394931748
0.9586971208512327
0.9940896346274893
0.9839328860480976
0.9930364227551162
1.000049048178889
0.9994292319496174
0.9975393971768441
0.9968670235868222
0.9834852122247183
0.9996236543493808
1.0012608206151437
0.9569433958479265
0.9923447155810013
0.8065110345930455
0.9244567338515737
0.8950069102138627
0.8964745517170489
0.9490992557493221
0.7631807138629937
0.736205214322052
0.8785130929333542
0.8255917653161049
0.5499888207676511
0.691492846113995
0.18727386700959772
0.5132874505360139
0.3819400583785687
0.5034477041848462
0.7285346021815263
0.6289258791661357
0.9560509652532985
0.9605733728153608
0.9951855314738006
0.980380144491271
0.8736851574121434
0.9218367202921708
0.7420144126430255
0.8815821036246507
0.8130888161891352
0.9027761384001728
0.9727034209649328
0.935041236603056
0.9607419332701947
0.9871277961669157
0.9935403748136187
0.9805013233439946
0.9714144492198103
0.9972231010320276
1.0010049385543043
0.9927882224541709
0.9874306582409182
0.9780546455758127
1.0002205665975323
0.9960813731523787
0.9994683884237665
0.9998827426768382
0.98093474278847
1.002507557774267
0.9982182209780102
1.0004493078437136
0.9887957856551665
1.003463910417385
0.9851862172042674
1.0034654745568816
0.9077961180500793
0.8516498294715273
0.9566475448181853
0.9344945610518325
0.928717530334906
0.97428541374947
0.8040689830099818
0.772833218569451
0.9091948543018024
0.8615414993255657
0.6594671073876632
0.58970203075346
0.7367182489018039
0.25820570381395985
0.19918587020115433
0.5454105484236142
0.410548209454215
0.5312161315259145
0.7624928663975568
0.6627596506317628
0.974829276898946
0.9778492171602724
0.9924239531344063
0.9028350216692335
0.946855538805518
0.7742611270621127
0.9094303871813003
0.8450382690375644
0.9298233183208382
0.9572574202099111
0.9440615998142706
0.8868670259492042
0.9553469243717048
0.9498698187892933
0.931671910338327
0.8723084640460524
0.9379700222092267
0.7757585257453932
0.6725996202903325
0.7918044603232602
0.7838425145253879
0.6882004361055141
0.8074077465927112
0.7996590935792697
0.9180693542921882
0.8569700956910034
0.9253826713504492
0.8410987405227794
0.9107094277288832
0.6406017935763323
0.7593644288957528
0.7511661633753645
0.6568009957445969
0.767575154407654
0.5175553824194238
0.3710841056698903
0.5316165445699398
0.5246159637926654
0.3603670055432676
0.5104719703769461
0.1932034295738833
0.19021608395813433
0.19924566550940637
0.1962176120643798
0.5455423096526906
0.39252934941251105
0.5594325041259487
0.5524853958916375
0.38181095451164904
0.5385882875355081
0.20531665645580915
0.2022788338462903
0.21140092344242598
0.20835987880339824
0.20806065268253146
0.38408486493544647
0.20362447952711393
0.2169066189492069
0.3996408644023326
0.21249052880074998
0.5713352497708085
0.6980188430509684
0.5514654210438614
0.5614749235842124
0.6754477400110701
0.5413746361701839
0.22564238786233626
0.4149689724154851
0.22129584274831215
0.4299143551916399
0.22991889279017325
0.7401277295273909
0.5906009536752094
0.5999896895245801
0.7195410949886248
0.5810460877647353
0.8405578271643597
0.913819768695141
0.820022489475386
0.8304550645576178
0.9305417595105532
0.8503148536348093
0.9754748242361808
0.9808154082924028
0.963260127942531
0.9695641071382126
0.7981546320341957
0.8743773399570842
0.786919474436188
0.895144700637297
0.8092907433251965
0.9474580507691182
0.9555843773826365
0.9385330074492092
0.4731333096018005
0.25237079098765375
0.255267244367921
0.7968044591194029
0.6477382255676291
0.6536316071407666
0.7846506381568977
0.6358489110383617
0.4634237962382223
0.6418138401585127
0.24659856731312826
0.2494862145914331
0.9718284187426278
0.8971833814839719
0.9027341972438601
0.9944987739328381
0.9996663132540247
1.0004781292673848
0.9991076929437792
0.9966034233786081
0.9611393475083763
0.9981237607152822
0.8840126046661702
0.8919162514871916
0.9535034812085115
0.8727412759491349
0.7697286152865592
0.8784834582654207
1.0024692649308982
0.992790872503098
0.9948549662876183
1.0041819669232017
0.9445967613028832
0.9903784211415461
0.7569821763618535
0.8668076097324431
0.45363578115142295
0.24073997063259114
0.2436925877869022
0.6211911221261792
0.6298234791605685
0.4410934388609624
0.6150904695810685
0.23766433402427922
0.9008541795340747
0.9656332590229759
0.9606140668732737
0.7038836244281859
0.8231307634624249
0.8152849153436189
0.7200830593707497
0.8388763226921966
0.9144160780236958
0.830989399698598
0.9750295125648673
0.9704442449984462
0.40352381861513287
0.5739693979117388
0.5666279399016895
0.2179274630047039
0.21461931023914915
0.2254033501214295
0.41537002905343406
0.22144316124482963
0.5896324069948891
0.581579882943495
0.4297163176820665
0.6078116364831014
0.7371418112562893
0.5983346501880009
0.23800275508642654
0.23038671161970894
0.45163716586131253
0.25325143301586794
0.7544005536438575
0.6176875195730581
0.9274380609306065
0.9832827127714527
0.9793363575247904
0.8544443821020375
0.8467445396778654
0.9392399402646316
0.8616991573537257
0.9867820721932703
