# vtk DataFile Version 3.0
LucasCarvalhoTCC Results
ASCII

DATASET POLYDATA
FIELD FieldData 1
TIME 1 1 double
0.015414675859066232

POINTS 417 float
0.8749999999996735 0.0 0.0
0.9374999999998368 0.0 0.0
0.8124999999995102 0.0 0.0
0.6874999999991838 0.0 0.0
0.5624999999988572 0.0 0.0
0.4374999999988753 0.0 0.0
0.3124999999992381 0.0 0.0
0.1874999999995994 0.0 0.0
0.0624999999998897 0.0 0.0
0.0 0.0 0.0
0.749999999999347 0.0 0.0
0.6249999999990205 0.0 0.0
0.499999999998694 0.0 0.0
0.3749999999990567 0.0 0.0
0.2499999999994194 0.0 0.0
0.1249999999997794 0.0 0.0
1.0 0.0 0.0
1.0 1.0 0.0
1.0 0.1249999999997794 0.0
1.0 0.2499999999994194 0.0
1.0 0.3749999999990567 0.0
1.0 0.499999999998694 0.0
1.0 0.6249999999990205 0.0
1.0 0.749999999999347 0.0
1.0 0.8749999999996735 0.0
1.0 0.0624999999998897 0.0
1.0 0.1874999999995994 0.0
1.0 0.3124999999992381 0.0
1.0 0.4374999999988753 0.0
1.0 0.5624999999988572 0.0
1.0 0.6874999999991838 0.0
1.0 0.8124999999995102 0.0
1.0 0.9374999999998368 0.0
-0.0 1.0 0.0
0.8750000000003563 1.0 0.0
0.7500000000009891 1.0 0.0
0.6250000000015759 1.0 0.0
0.5000000000020591 1.0 0.0
0.3750000000015444 1.0 0.0
0.2500000000010296 1.0 0.0
0.1250000000005148 1.0 0.0
0.9375000000001781 1.0 0.0
0.8125000000006727 1.0 0.0
0.6875000000012825 1.0 0.0
0.5625000000018174 1.0 0.0
0.4375000000018018 1.0 0.0
0.312500000001287 1.0 0.0
0.1875000000007722 1.0 0.0
0.0625000000002574 1.0 0.0
0.0 0.8750000000003563 0.0
0.0 0.7500000000009891 0.0
0.0 0.6250000000015759 0.0
0.0 0.5000000000020591 0.0
0.0 0.3750000000015444 0.0
0.0 0.2500000000010296 0.0
0.0 0.1250000000005148 0.0
0.0 0.9375000000001781 0.0
0.0 0.8125000000006727 0.0
0.0 0.6875000000012825 0.0
0.0 0.5625000000018174 0.0
0.0 0.4375000000018018 0.0
0.0 0.312500000001287 0.0
0.0 0.1875000000007722 0.0
0.0 0.0625000000002574 0.0
0.5647364308662526 0.446732401698651 0.0
0.2354892605327167 0.5800652382235558 0.0
0.287250702605353 0.3933735249345629 0.0
0.1177446302663583 0.5400326191128075 0.0
0.1436253513026765 0.1966867624672815 0.0
0.2613699815690348 0.4867193815790594 0.0
0.1306849907845174 0.3683596907900445 0.0
0.4259935667358028 0.420052963316607 0.0
0.5323682154341558 0.7233662008493256 0.0
0.3677446302673879 0.7900326191117779 0.0
0.3968690985015953 0.6050427912141925 0.0
0.5323682154324733 0.2233662008493255 0.0
0.3379967833676111 0.2100264816583035 0.0
0.183872315133694 0.7700163095563834 0.0
0.7823682154331263 0.4733662008486725 0.0
0.7661841077170577 0.7366831004243363 0.0
0.7661841077162367 0.2366831004243725 0.0
0.1766169453995375 0.5600489286681817 0.0
0.1242148105254379 0.454196154951426 0.0
0.1960274861767761 0.4275395361845519 0.0
0.2484296210508757 0.5333923099013076 0.0
0.1863222157881568 0.4937942324263668 0.0
0.05887231513317917 0.5200163095574333 0.0
0.0653424953922587 0.3091798453955371 0.0
0.06210740526271893 0.4145980774764852 0.0
0.07181267565133824 0.09834338123364073 0.0
0.1371551710435969 0.282523226628663 0.0
0.06857758552179846 0.2037616133145889 0.0
0.2154380269540147 0.2950301437009222 0.0
0.2743103420871938 0.4400464532568111 0.0
0.2057327565653954 0.361284839942737 0.0
0.3566221346705779 0.406713244125585 0.0
0.411431332618699 0.5125478772653997 0.0
0.3291195400353151 0.5458810863966259 0.0
0.3428708373529465 0.4762971652611054 0.0
0.4953649988010277 0.433392682507629 0.0
0.5485523231502042 0.5850493012739884 0.0
0.4646186569678755 0.664204496031759 0.0
0.4799918278844516 0.548798589269694 0.0
0.5161841077181075 0.8616831004246628 0.0
0.4338723151347235 0.895016309555889 0.0
0.3823068643844916 0.6975377051629852 0.0
0.4492454860512995 0.779610402793824 0.0
0.3016169454000523 0.6850489286676669 0.0
0.3153682427176836 0.6154650075321464 0.0
0.3819951750517069 0.3150397224874552 0.0
0.4351824994000422 0.2166963412538145 0.0
0.548552323149363 0.3350493012739882 0.0
0.465273749100535 0.3250445118807217 0.0
0.2408110673351438 0.2033566220627925 0.0
0.2987166010028608 0.3050349330941887 0.0
0.2939983916835152 0.1050132408291517 0.0
0.1829055336674616 0.1016783110313962 0.0
0.5161841077155837 0.1116831004246628 0.0
0.4050912496995495 0.1083481706269072 0.0
0.2169361575673618 0.8850081547781917 0.0
0.2758084727005409 0.7800244643340807 0.0
0.3254042363510427 0.8900122321670404 0.0
0.09193615756684699 0.7600081547786863 0.0
0.1084680787836809 0.880004077389274 0.0
0.1508084727000262 0.6550244643345955 0.0
0.07540423635001309 0.6400122321680856 0.0
0.2262127090500392 0.6700366965011312 0.0
0.6492761615756067 0.7300246506368309 0.0
0.7580920538590235 0.8683415502121681 0.0
0.6371380807885914 0.8650123253184154 0.0
0.6735523231496894 0.4600493012736618 0.0
0.7742761615750919 0.6050246506365045 0.0
0.661414242362648 0.5950369759552463 0.0
0.8911841077165632 0.4866831004236832 0.0
0.8830920538585288 0.7433415502118417 0.0
0.887138080787546 0.6150123253177625 0.0
0.8790460269294426 0.871670775105921 0.0
0.649276161574355 0.230024650636849 0.0
0.7742761615746815 0.3550246506365225 0.0
0.6614142423620222 0.3450369759552553 0.0
0.7580920538577918 0.1183415502121862 0.0
0.6371380807866877 0.1150123253184245 0.0
0.8830920538581184 0.2433415502118959 0.0
0.879046026928896 0.1216707751059828 0.0
0.8871380807873408 0.3650123253177896 0.0
0.2060531029661271 0.5700570834458687 0.0
0.1814695805938472 0.5269215805472742 0.0
0.2173759184195163 0.5135932711638371 0.0
0.2419594407917962 0.5567287740624317 0.0
0.2117145106928217 0.5418251773048528 0.0
0.1471807878329479 0.5500407738904947 0.0
0.1209797203958981 0.4971143870321167 0.0
0.1552685131567973 0.4739951936888964 0.0
0.1512246504948726 0.5120179837896954 0.0
0.1274499006549776 0.4112779228707353 0.0
0.1633562384806467 0.3979496134872982 0.0
0.1911748509824664 0.4606668843054593 0.0
0.159312375818722 0.4359724035880972 0.0
0.2286987338729055 0.4571294588818057 0.0
0.2548998013099553 0.5100558457401835 0.0
0.2230373261462109 0.4853613650228214 0.0
0.08830847269976874 0.5300244643351204 0.0
0.06048986019794905 0.4673071935169593 0.0
0.09316110789407842 0.4343971162139556 0.0
0.09073479029692358 0.482210790274538 0.0
0.02943615756658959 0.5100081547797461 0.0
0.03105370263135946 0.3947990387390148 0.0
0.03024493009897453 0.4524035967593805 0.0
0.03267124769612935 0.2795899226982834 0.0
0.06372495032748882 0.3618889614360111 0.0
0.03186247516374441 0.337194480718649 0.0
0.09801374308838805 0.3387697680927908 0.0
0.09558742549123322 0.3865834421533731 0.0
0.06696004045702858 0.256470729355063 0.0
0.1028663782826977 0.2431424199716259 0.0
0.1339200809140572 0.3254414587093538 0.0
0.1004400606855429 0.2909560940322084 0.0
0.03428879276089923 0.1643808066575518 0.0
0.03348002022851429 0.2219853646779176 0.0
0.03590633782566912 0.04917169061682036 0.0
0.07019513058656834 0.1510524972741148 0.0
0.03509756529328417 0.1067762486371861 0.0
0.1077190134770074 0.1475150718504611 0.0
0.1403902611731367 0.2396049945479723 0.0
0.1052926958798525 0.1953287459110435 0.0
0.2008801213710857 0.3944121880636445 0.0
0.2400215493262946 0.4006656465997741 0.0
0.2678401618281143 0.4633829174179352 0.0
0.2343601415996001 0.4288975527407898 0.0
0.1714439638044962 0.3219040332857001 0.0
0.1674001011425715 0.3599268233864991 0.0
0.1795316891283456 0.2458584530841018 0.0
0.2105853917597051 0.3281574918218296 0.0
0.1754878264664209 0.2838812431849009 0.0
0.2513443647796839 0.3442018343177425 0.0
0.2807805223462734 0.416709989095687 0.0
0.2456829570529892 0.3724337404587583 0.0
0.3219364186379655 0.4000433845300739 0.0
0.3497464860117622 0.4415052046933452 0.0
0.3085905897200701 0.4581718092589582 0.0
0.3152635041790178 0.4291075968945161 0.0
0.3913078507031904 0.413383103721096 0.0
0.4187124496772509 0.4663004202910034 0.0
0.3771510849858227 0.4944225212632526 0.0
0.3842294678445065 0.4539028124921743 0.0
0.4041502155601472 0.5587953342397961 0.0
0.3629943192684552 0.5754619388054092 0.0
0.3359951886941308 0.5110891258288657 0.0
0.370072702127139 0.5349422300343308 0.0
0.2952447608021749 0.5163002339878426 0.0
0.3019176752611226 0.4872360216234005 0.0
0.4606792827684152 0.426722822912118 0.0
0.4876784133427396 0.4910956358886616 0.0
0.4457115802515753 0.5306732332675469 0.0
0.4531954315099953 0.4786980280898325 0.0
0.5300507148336402 0.44006254210314 0.0
0.5566443770082283 0.5158908514863196 0.0
0.5142720755173279 0.5669239452718412 0.0
0.522161395175484 0.5034932436874906 0.0
0.54046026929218 0.654207751061657 0.0
0.4984934362010157 0.6937853484405423 0.0
0.4723052424261636 0.6065015426507265 0.0
0.5063827558591718 0.6303546468561917 0.0
0.4307438777347354 0.6346236436229757 0.0
0.4382277289931554 0.5826484384452614 0.0
0.4569320715095875 0.7219074494127915 0.0
0.4157761752178956 0.7385740539784046 0.0
0.3895879814430434 0.6512902481885888 0.0
0.4232600264763154 0.6865988488006901 0.0
0.5242761615761317 0.7925246506369942 0.0
0.4827147968847035 0.8206467516092434 0.0
0.4906041165428595 0.7572160500248929 0.0
0.5080920538600833 0.9308415502123314 0.0
0.4669361575683914 0.9475081547779445 0.0
0.4415589005930115 0.8373133561748565 0.0
0.4748254772265474 0.884077453193594 0.0
0.4008084727010557 0.8425244643338334 0.0
0.3750257473259397 0.7437851621373816 0.0
0.4082923239594756 0.7905492591561191 0.0
0.3222438913764993 0.5806730469643862 0.0
0.2818989318842797 0.574428658716727 0.0
0.2885718463432273 0.5453644463522848 0.0
0.3488375535510876 0.6565013563475658 0.0
0.3559159364097714 0.6159816475764875 0.0
0.3346807878337201 0.7375407738897224 0.0
0.308492594058868 0.6502569680999066 0.0
0.3417591706924039 0.6970210651186441 0.0
0.2685531029663845 0.6325570834456113 0.0
0.2752260174253321 0.6034928710811692 0.0
0.4803193739507813 0.3792185971941754 0.0
0.506913036124949 0.3300469065773549 0.0
0.5566443770078078 0.3908908514863196 0.0
0.5184818754792946 0.3850547243402475 0.0
0.4039943708937548 0.3675463429020311 0.0
0.4236344620761209 0.3200421171840885 0.0
0.4421568724222681 0.3733824700481033 0.0
0.359995979209659 0.2625331020728794 0.0
0.3865896413838267 0.213361411456059 0.0
0.4502281242502886 0.2708704265672681 0.0
[...]
POINT_DATA 417

SCALARS Temperature float 1

LOOKUP_TABLE Temperature
0.0
0.0
0.0
0.0
0.0
0.0
0.0
0.0
0.0
0.0
0.0
0.0
0.0
0.0
0.0
0.0
0.15719033195444146
0.0
0.4641036686176244
0.7604051738373585
0.9426168600350129
1.0024670941573237
0.9380422119500711
0.7491334115519246
0.43538800208611356
0.2903000465937963
0.6250770234031853
0.8666232083763865
0.9879562901372844
0.9858059873594671
0.8591626119340909
0.6079049296033657
0.23130369474471574
0.0
0.0
0.0
0.0
0.0
0.0
0.0
0.0
0.0
0.0
0.0
0.0
0.0
0.0
0.0
0.0
0.43648142358620473
0.7487602792220531
0.9365105082805094
1.0000067055825856
0.937369312273503
0.7498947529076881
0.4376218579966942
0.23370397237892995
0.6081819566774271
0.8582030582596477
0.9837169502893007
0.9842850549175585
0.8592409282717027
0.6093659915152674
0.23455878018948667
0.9901607354515233
0.9726814396157435
0.9533665726262496
0.9925281317871694
0.6313190267023555
0.9980568846793809
0.9293561226002067
0.9746104784164532
0.8013132176285086
0.6629108514677508
0.9551069827093592
0.6947489477201985
0.6635959682293883
0.7076851146754061
0.9991243745902176
0.7771464614155976
0.7272315704436031
0.9840960525368765
0.9903010776380288
0.977607277455613
0.9937244926002529
0.9982442427628183
0.9979950136519817
0.8534373749492624
0.9699858484591429
0.354502790164574
0.8099718195214531
0.6481986680953596
0.8303282085880486
0.9840516838205614
0.9216136170170748
0.9640411583126902
0.9990624125033409
0.9904701112013146
0.996703529115254
0.9832800346561478
0.9730041335200701
0.892050625664974
0.9911630383631229
0.4772138540399785
0.37565613441076207
0.842850761444687
0.6868198622769041
0.8612366819454085
0.9453441624901697
0.8632479879825197
0.6792678328886963
0.892260360586174
0.8781064651464516
0.647722468226897
0.8475063711154254
0.3758575670334644
0.3651362154667221
0.3972729188915952
0.38655426994684056
0.40669629750299185
0.685742868231033
0.3912594635579909
0.7286986331634827
0.42182454551291626
0.9030670723208285
0.9207500393509609
0.8838567167674681
0.7893526562580394
0.4578070130896124
0.4675249524137151
0.9951406397356345
0.9557815486810908
0.9648296403224468
1.0017148737638424
0.762096003875071
0.9474646148398117
0.4479482510977012
0.7106853474880919
0.9193573325838362
0.9060624389653669
0.42133951073514053
0.4086416945297327
0.7446345149767554
0.4385838320837853
0.9318755165749515
0.9788391626088166
0.9954948092739935
0.9976175239250605
0.9854463788128511
0.991354394855708
0.9882612490420082
0.9987583454507506
0.9958092738793053
0.9979343066010744
0.9671666985033378
0.9569567737545086
0.9922700580334233
0.9821362137660185
0.9912191172741882
0.9982158903043725
0.9975975429848927
0.9957123790943463
0.9950414956836683
0.981689709767692
0.9977918590880621
0.9994254270969679
0.9552072604235529
0.9905294196494387
0.8050985553296789
0.9227921384432891
0.8934065082430163
0.8948707736207587
0.9473803376493086
0.7618575408233464
0.7349368120960428
0.8769480139508206
0.8241391475718475
0.5490825910328154
0.6903143088499415
0.18699135087597904
0.5124490166481559
0.38133574726813224
0.5026275031347571
0.7272816459134913
0.6278696722104447
0.9543164520429961
0.9588286647573132
0.993363274022282
0.9785912622505475
0.8721304769229457
0.9201776395834711
0.7407345253075777
0.8800102254501219
0.8116623326283718
0.9011583996246713
0.97093161182356
0.9333530077938732
0.9589966890662385
0.9853233904798143
0.9917216879341656
0.9787119394521154
0.9696451331286144
0.9953956768606184
0.999169155349187
0.990970944649982
0.9856254777920486
0.97627067422832
0.9983867275387819
0.9942567831251143
0.9976364067552053
0.9980497741094814
0.9791437719085538
1.0006679028233958
0.9963885341503227
0.9986144495576986
0.9869867606489696
1.0016218130193875
0.983385794900357
1.0016235140362773
0.9061673289503457
0.850141953397921
0.9549111353794366
0.932807204397251
0.9270428979653944
0.9725096769108398
0.8026611534022515
0.7714899646748931
0.9075630067961055
0.8600123587323837
0.6583521588126788
0.5887212042847636
0.735449018844126
0.25781001413311166
0.19888449695559635
0.5445127445107636
0.40989427446576476
0.5303448486793189
0.7611709346433747
0.6616375333918005
0.9730527116258908
0.9760659982856014
0.9906079325463777
0.9012172548248388
0.9451411154222386
0.7729152580549299
0.9077982699264123
0.8435445917327911
0.92814682501251
0.9555202275961348
0.9423526016402723
0.8852827586840197
0.9536124595656197
0.9481477356584278
0.9299906690488627
0.8707560266770267
0.9362746969079372
0.7744093384159707
0.6714580635391109
0.7904216393845797
0.7824764281399693
0.6870275073763795
0.8059918975465288
0.7982596815648549
0.9164182772595795
0.8554508691947396
0.923715457926575
0.8396135145065323
0.9090744980005446
0.6395232809183954
0.7580492292512961
0.7498678693770129
0.655690814584968
0.7662429773824468
0.5167094157264173
0.37049870233994514
0.5307444765701093
0.5237569448412609
0.3597999694284886
0.509638989014853
0.1929116532323341
0.18992899074645386
0.19894429255679408
0.19592106884405283
0.5446439907575852
0.39190626682157065
0.5585076259760728
0.5515738467320646
0.381206861152534
0.5377031253097317
0.20500547824115112
0.20197258313410932
0.2110796830212402
0.20804371150180118
0.20774537368018725
0.3834770688409473
0.2033161649660515
0.2165773161173863
0.39900629294908524
0.21216825374708284
0.5703895524661677
0.6968278130861161
0.5505568663556616
0.5605477383792921
0.6743011706824578
0.5404847193927846
0.22529892070491225
0.41430755548715137
0.2209594817229804
0.4292259953957913
0.2295682146732401
0.7388516580097622
0.5896185403469556
0.5989890554296208
0.7183069585453223
0.5800819842577474
0.8390740572153886
0.9121786797940792
0.8185821131278517
0.8289927129762096
0.9288639780658713
0.8488102710521969
0.9736974687825455
0.9790260801517087
0.9615100406371251
0.9677999667669225
0.796759856314654
0.8728214067434341
0.7855479459382251
0.8935442064007225
0.8078728223685898
0.945742911691452
0.953851310725416
0.9368374054516717
0.4723680860198209
0.25198373256904427
0.2548758001790146
0.7954114862461721
0.6466449255536824
0.6525273771361935
0.7832817831279019
0.6347779211611587
0.46267516699907496
0.6407316133229818
0.24622052084038368
0.2491036263582338
0.9700574341578585
0.8955765128157236
0.9011158228312006
0.9926763133915937
0.9978319650210763
0.9986423582097897
0.9972740876230215
0.9947752010211639
0.9593910077402423
0.9962924544637468
0.8824327559872742
0.8903202672691992
0.9517714974279976
0.8711854001511221
0.7683888685683258
0.8769152991291689
1.0006274975921081
0.9909708431307713
0.9930304335159239
1.0023360446030878
0.9428844355723481
0.9885637911048013
0.7556687787065601
0.8652645814266067
0.4529042703750432
0.24037129314853278
0.2433191668956331
0.6201466287873957
0.628763948496244
0.4403821296699358
0.614057997280515
0.23730058876572424
0.8992389643010434
0.963875146305615
0.9588674994171396
0.7026787635699241
0.8216812093291997
0.8138521820426534
0.7188450851982784
0.8373930894993479
0.9127706703925247
0.8295230161669156
0.973249795325416
0.9686750638152211
0.4028809677291282
0.5730164483544576
0.5656891785698251
0.21759539617059032
0.2142927557900502
0.22505878312490796
0.414705783407493
0.22110521195219615
0.5886493188830025
0.5806122464699005
0.42902649271012805
0.6067942817746066
0.7358692426517849
0.5973350403812223
0.23763768099011207
0.23003390904151166
0.4509100068920969
0.2528626278204453
0.7530932057380227
0.6166518403583774
0.9257637295859631
0.9814840803901839
0.9775467630307368
0.8529279847802701
0.8452445416291694
0.9375393432134296
0.8601672103566163
0.98497542500672
