# vtk DataFile Version 3.0
LucasCarvalhoTCC Results
ASCII

DATASET POLYDATA
FIELD FieldData 1
TIME 1 1 double
0.015414675859066232

POINTS 417 float
0.8749999999996735 0.0 0.0
0.9374999999998368 0.0 0.0
0.8124999999995102 0.0 0.0
0.6874999999991838 0.0 0.0
0.5624999999988572 0.0 0.0
0.4374999999988753 0.0 0.0
0.3124999999992381 0.0 0.0
0.1874999999995994 0.0 0.0
0.0624999999998897 0.0 0.0
0.0 0.0 0.0
0.749999999999347 0.0 0.0
0.6249999999990205 0.0 0.0
0.499999999998694 0.0 0.0
0.3749999999990567 0.0 0.0
0.2499999999994194 0.0 0.0
0.1249999999997794 0.0 0.0
1.0 0.0 0.0
1.0 1.0 0.0
1.0 0.1249999999997794 0.0
1.0 0.2499999999994194 0.0
1.0 0.3749999999990567 0.0
1.0 0.499999999998694 0.0
1.0 0.6249999999990205 0.0
1.0 0.749999999999347 0.0
1.0 0.8749999999996735 0.0
1.0 0.0624999999998897 0.0
1.0 0.1874999999995994 0.0
1.0 0.3124999999992381 0.0
1.0 0.4374999999988753 0.0
1.0 0.5624999999988572 0.0
1.0 0.6874999999991838 0.0
1.0 0.8124999999995102 0.0
1.0 0.9374999999998368 0.0
-0.0 1.0 0.0
0.8750000000003563 1.0 0.0
0.7500000000009891 1.0 0.0
0.6250000000015759 1.0 0.0
0.5000000000020591 1.0 0.0
0.3750000000015444 1.0 0.0
0.2500000000010296 1.0 0.0
0.1250000000005148 1.0 0.0
0.9375000000001781 1.0 0.0
0.8125000000006727 1.0 0.0
0.6875000000012825 1.0 0.0
0.5625000000018174 1.0 0.0
0.4375000000018018 1.0 0.0
0.312500000001287 1.0 0.0
0.1875000000007722 1.0 0.0
0.0625000000002574 1.0 0.0
0.0 0.8750000000003563 0.0
0.0 0.7500000000009891 0.0
0.0 0.6250000000015759 0.0
0.0 0.5000000000020591 0.0
0.0 0.3750000000015444 0.0
0.0 0.2500000000010296 0.0
0.0 0.1250000000005148 0.0
0.0 0.9375000000001781 0.0
0.0 0.8125000000006727 0.0
0.0 0.6875000000012825 0.0
0.0 0.5625000000018174 0.0
0.0 0.4375000000018018 0.0
0.0 0.312500000001287 0.0
0.0 0.1875000000007722 0.0
0.0 0.0625000000002574 0.0
0.5647364308662526 0.446732401698651 0.0
0.2354892605327167 0.5800652382235558 0.0
0.287250702605353 0.3933735249345629 0.0
0.1177446302663583 0.5400326191128075 0.0
0.1436253513026765 0.1966867624672815 0.0
0.2613699815690348 0.4867193815790594 0.0
0.1306849907845174 0.3683596907900445 0.0
0.4259935667358028 0.420052963316607 0.0
0.5323682154341558 0.7233662008493256 0.0
0.3677446302673879 0.7900326191117779 0.0
0.3968690985015953 0.6050427912141925 0.0
0.5323682154324733 0.2233662008493255 0.0
0.3379967833676111 0.2100264816583035 0.0
0.183872315133694 0.7700163095563834 0.0
0.7823682154331263 0.4733662008486725 0.0
0.7661841077170577 0.7366831004243363 0.0
0.7661841077162367 0.2366831004243725 0.0
0.1766169453995375 0.5600489286681817 0.0
0.1242148105254379 0.454196154951426 0.0
0.1960274861767761 0.4275395361845519 0.0
0.2484296210508757 0.5333923099013076 0.0
0.1863222157881568 0.4937942324263668 0.0
0.05887231513317917 0.5200163095574333 0.0
0.0653424953922587 0.3091798453955371 0.0
0.06210740526271893 0.4145980774764852 0.0
0.07181267565133824 0.09834338123364073 0.0
0.1371551710435969 0.282523226628663 0.0
0.06857758552179846 0.2037616133145889 0.0
0.2154380269540147 0.2950301437009222 0.0
0.2743103420871938 0.4400464532568111 0.0
0.2057327565653954 0.361284839942737 0.0
0.3566221346705779 0.406713244125585 0.0
0.411431332618699 0.5125478772653997 0.0
0.3291195400353151 0.5458810863966259 0.0
0.3428708373529465 0.4762971652611054 0.0
0.4953649988010277 0.433392682507629 0.0
0.5485523231502042 0.5850493012739884 0.0
0.4646186569678755 0.664204496031759 0.0
0.4799918278844516 0.548798589269694 0.0
0.5161841077181075 0.8616831004246628 0.0
0.4338723151347235 0.895016309555889 0.0
0.3823068643844916 0.6975377051629852 0.0
0.4492454860512995 0.779610402793824 0.0
0.3016169454000523 0.6850489286676669 0.0
0.3153682427176836 0.6154650075321464 0.0
0.3819951750517069 0.3150397224874552 0.0
0.4351824994000422 0.2166963412538145 0.0
0.548552323149363 0.3350493012739882 0.0
0.465273749100535 0.3250445118807217 0.0
0.2408110673351438 0.2033566220627925 0.0
0.2987166010028608 0.3050349330941887 0.0
0.2939983916835152 0.1050132408291517 0.0
0.1829055336674616 0.1016783110313962 0.0
0.5161841077155837 0.1116831004246628 0.0
0.4050912496995495 0.1083481706269072 0.0
0.2169361575673618 0.8850081547781917 0.0
0.2758084727005409 0.7800244643340807 0.0
0.3254042363510427 0.8900122321670404 0.0
0.09193615756684699 0.7600081547786863 0.0
0.1084680787836809 0.880004077389274 0.0
0.1508084727000262 0.6550244643345955 0.0
0.07540423635001309 0.6400122321680856 0.0
0.2262127090500392 0.6700366965011312 0.0
0.6492761615756067 0.7300246506368309 0.0
0.7580920538590235 0.8683415502121681 0.0
0.6371380807885914 0.8650123253184154 0.0
0.6735523231496894 0.4600493012736618 0.0
0.7742761615750919 0.6050246506365045 0.0
0.661414242362648 0.5950369759552463 0.0
0.8911841077165632 0.4866831004236832 0.0
0.8830920538585288 0.7433415502118417 0.0
0.887138080787546 0.6150123253177625 0.0
0.8790460269294426 0.871670775105921 0.0
0.649276161574355 0.230024650636849 0.0
0.7742761615746815 0.3550246506365225 0.0
0.6614142423620222 0.3450369759552553 0.0
0.7580920538577918 0.1183415502121862 0.0
0.6371380807866877 0.1150123253184245 0.0
0.8830920538581184 0.2433415502118959 0.0
0.879046026928896 0.1216707751059828 0.0
0.8871380807873408 0.3650123253177896 0.0
0.2060531029661271 0.5700570834458687 0.0
0.1814695805938472 0.5269215805472742 0.0
0.2173759184195163 0.5135932711638371 0.0
0.2419594407917962 0.5567287740624317 0.0
0.2117145106928217 0.5418251773048528 0.0
0.1471807878329479 0.5500407738904947 0.0
0.1209797203958981 0.4971143870321167 0.0
0.1552685131567973 0.4739951936888964 0.0
0.1512246504948726 0.5120179837896954 0.0
0.1274499006549776 0.4112779228707353 0.0
0.1633562384806467 0.3979496134872982 0.0
0.1911748509824664 0.4606668843054593 0.0
0.159312375818722 0.4359724035880972 0.0
0.2286987338729055 0.4571294588818057 0.0
0.2548998013099553 0.5100558457401835 0.0
0.2230373261462109 0.4853613650228214 0.0
0.08830847269976874 0.5300244643351204 0.0
0.06048986019794905 0.4673071935169593 0.0
0.09316110789407842 0.4343971162139556 0.0
0.09073479029692358 0.482210790274538 0.0
0.02943615756658959 0.5100081547797461 0.0
0.03105370263135946 0.3947990387390148 0.0
0.03024493009897453 0.4524035967593805 0.0
0.03267124769612935 0.2795899226982834 0.0
0.06372495032748882 0.3618889614360111 0.0
0.03186247516374441 0.337194480718649 0.0
0.09801374308838805 0.3387697680927908 0.0
0.09558742549123322 0.3865834421533731 0.0
0.06696004045702858 0.256470729355063 0.0
0.1028663782826977 0.2431424199716259 0.0
0.1339200809140572 0.3254414587093538 0.0
0.1004400606855429 0.2909560940322084 0.0
0.03428879276089923 0.1643808066575518 0.0
0.03348002022851429 0.2219853646779176 0.0
0.03590633782566912 0.04917169061682036 0.0
0.07019513058656834 0.1510524972741148 0.0
0.03509756529328417 0.1067762486371861 0.0
0.1077190134770074 0.1475150718504611 0.0
0.1403902611731367 0.2396049945479723 0.0
0.1052926958798525 0.1953287459110435 0.0
0.2008801213710857 0.3944121880636445 0.0
0.2400215493262946 0.4006656465997741 0.0
0.2678401618281143 0.4633829174179352 0.0
0.2343601415996001 0.4288975527407898 0.0
0.1714439638044962 0.3219040332857001 0.0
0.1674001011425715 0.3599268233864991 0.0
0.1795316891283456 0.2458584530841018 0.0
0.2105853917597051 0.3281574918218296 0.0
0.1754878264664209 0.2838812431849009 0.0
0.2513443647796839 0.3442018343177425 0.0
0.2807805223462734 0.416709989095687 0.0
0.2456829570529892 0.3724337404587583 0.0
0.3219364186379655 0.4000433845300739 0.0
0.3497464860117622 0.4415052046933452 0.0
0.3085905897200701 0.4581718092589582 0.0
0.3152635041790178 0.4291075968945161 0.0
0.3913078507031904 0.413383103721096 0.0
0.4187124496772509 0.4663004202910034 0.0
0.3771510849858227 0.4944225212632526 0.0
0.3842294678445065 0.4539028124921743 0.0
0.4041502155601472 0.5587953342397961 0.0
0.3629943192684552 0.5754619388054092 0.0
0.3359951886941308 0.5110891258288657 0.0
0.370072702127139 0.5349422300343308 0.0
0.2952447608021749 0.5163002339878426 0.0
0.3019176752611226 0.4872360216234005 0.0
0.4606792827684152 0.426722822912118 0.0
0.4876784133427396 0.4910956358886616 0.0
0.4457115802515753 0.5306732332675469 0.0
0.4531954315099953 0.4786980280898325 0.0
0.5300507148336402 0.44006254210314 0.0
0.5566443770082283 0.5158908514863196 0.0
0.5142720755173279 0.5669239452718412 0.0
0.522161395175484 0.5034932436874906 0.0
0.54046026929218 0.654207751061657 0.0
0.4984934362010157 0.6937853484405423 0.0
0.4723052424261636 0.6065015426507265 0.0
0.5063827558591718 0.6303546468561917 0.0
0.4307438777347354 0.6346236436229757 0.0
0.4382277289931554 0.5826484384452614 0.0
0.4569320715095875 0.7219074494127915 0.0
0.4157761752178956 0.7385740539784046 0.0
0.3895879814430434 0.6512902481885888 0.0
0.4232600264763154 0.6865988488006901 0.0
0.5242761615761317 0.7925246506369942 0.0
0.4827147968847035 0.8206467516092434 0.0
0.4906041165428595 0.7572160500248929 0.0
0.5080920538600833 0.9308415502123314 0.0
0.4669361575683914 0.9475081547779445 0.0
0.4415589005930115 0.8373133561748565 0.0
0.4748254772265474 0.884077453193594 0.0
0.4008084727010557 0.8425244643338334 0.0
0.3750257473259397 0.7437851621373816 0.0
0.4082923239594756 0.7905492591561191 0.0
0.3222438913764993 0.5806730469643862 0.0
0.2818989318842797 0.574428658716727 0.0
0.2885718463432273 0.5453644463522848 0.0
0.3488375535510876 0.6565013563475658 0.0
0.3559159364097714 0.6159816475764875 0.0
0.3346807878337201 0.7375407738897224 0.0
0.308492594058868 0.6502569680999066 0.0
0.3417591706924039 0.6970210651186441 0.0
0.2685531029663845 0.6325570834456113 0.0
0.2752260174253321 0.6034928710811692 0.0
0.4803193739507813 0.3792185971941754 0.0
0.506913036124949 0.3300469065773549 0.0
0.5566443770078078 0.3908908514863196 0.0
0.5184818754792946 0.3850547243402475 0.0
0.4039943708937548 0.3675463429020311 0.0
0.4236344620761209 0.3200421171840885 0.0
0.4421568724222681 0.3733824700481033 0.0
0.359995979209659 0.2625331020728794 0.0
0.3865896413838267 0.213361411456059 0.0
0.4502281242502886 0.2708704265672681 0.0
[...]
POINT_DATA 417

SCALARS Temperature float 1

LOOKUP_TABLE Temperature
0.0
0.0
0.0
0.0
0.0
0.0
0.0
0.0
0.0
0.0
0.0
0.0
0.0
0.0
0.0
0.0
0.15739852067414314
0.0
0.46478654984494433
0.7616108757182086
0.9441776497796676
1.004150208727233
0.9395932866556722
0.7503181514752447
0.4360278745055737
0.29070558164332133
0.626035828023424
0.8680326793161293
0.9896095547506036
0.987454533885385
0.8605570808475032
0.6088348687661714
0.23162945444756
0.0
0.0
0.0
0.0
0.0
0.0
0.0
0.0
0.0
0.0
0.0
0.0
0.0
0.0
0.0
0.0
0.437121373317501
0.7499422819055162
0.9380554741048064
1.0016811338263425
0.9389159684476429
0.7510783624418034
0.43826250162029734
0.2340304736534459
0.6091107108365634
0.859593113006555
0.9853578156121509
0.9859271153310312
0.8606327862358449
0.6102959597015793
0.2348854366270998
0.9918166433308492
0.9742999933449388
0.954946080981497
0.9941871918356057
0.6322877910586507
0.9997277911972138
0.9308869542941618
0.9762337607387045
0.8025937284672643
0.6639358280330948
0.956690259440605
0.6958325429371994
0.6646223543313967
0.7087906974260993
1.0008000779321602
0.7783831655114762
0.7283757464220076
0.9857378522188742
0.991955685880896
0.9792360060687317
0.9953863680677242
0.999915324883172
0.9996653021311581
0.8548181572893134
0.971598713275915
0.3550115418518733
0.8112688771576675
0.6491975957276673
0.8316645241259577
0.9856938116774372
0.9231290382383474
0.9656426290728315
1.0007358777144297
0.9921255339193358
0.9983719130222671
0.9849214263337138
0.9746242176827579
0.8935075572339546
0.9928203480054099
0.477918833611771
0.3761980586868902
0.844211375793839
0.6878881700002848
0.8626327867300024
0.9469073696771126
0.8646483663958888
0.6803228324881587
0.8937186686823049
0.8795363902194993
0.6487202551855532
0.8488757837068867
0.37639974041806507
0.365661468421642
0.39784975951508045
0.3871136027875339
0.4072870382084391
0.6868086278806791
0.39182574679956306
0.7298429841234514
0.4224397798594394
0.9045450243597852
0.9222632801959839
0.8852966918315186
0.7906115897303438
0.45848176375804256
0.46821505689973153
0.9968075015329338
0.9573684136381694
0.9664339732150058
1.0033963203782377
0.7633055684854892
0.9490349446365839
0.4486070701731791
0.7117987155121669
0.9208707349728632
0.9075488250765453
0.42195594960834404
0.40923724732939076
0.745810753332441
0.43922780927315275
0.9334143119430878
0.9804702358220172
0.9971601514398744
0.9992873656944337
0.9870911568896776
0.9930112561229876
0.989911581299536
1.000430333067889
0.9974752810109786
0.9996046381606879
0.9687739694213631
0.9585433557251604
0.9939288692012097
0.9837741444317207
0.9928758577929239
0.9998870824499659
0.9992673961906967
0.9973779746443765
0.9967057327714108
0.9833265741809486
0.9994618097331236
1.0010986581809775
0.9567900031577622
0.9921843288271062
0.806386237878905
0.9243096618952741
0.8948655099743148
0.8963328530863826
0.9489473841580935
0.7630638075842462
0.7360931471512433
0.8783748133922873
0.8254634221531825
0.5499087526938509
0.6913887188658752
0.18724890587497367
0.5132133724026318
0.38188666570710655
0.5033752369375675
0.7284238996247833
0.6288325600853171
0.9558977154045674
0.9604192220122527
0.9950245287530162
0.9802220907849954
0.8735477964839643
0.9216901352906399
0.7419013305311333
0.8814432230612816
0.8129627818483809
0.9026332056975799
0.9725468754434644
0.9348920759001299
0.9605877345796492
0.9869683701389016
0.9933796872909025
0.9803432247985184
0.9712581231730583
0.997061640682913
1.0008427399906648
0.9926276588576833
0.9872711633351703
0.9778970249011187
1.00005854012606
0.9959201636061414
0.9993065263529961
0.9997207933632829
0.980776502890265
1.0023450161985636
0.998056560488154
1.0002871903696962
0.9886359500117449
1.0033011524477946
0.9850271417808717
1.0033027289763514
0.9076522069963745
0.8515166019404214
0.9564941255626156
0.9343454755519833
0.928569569673044
0.9741285200293829
0.8039445953015083
0.7727145366525245
0.909050674161558
0.8614063935141039
0.6593685966092029
0.5896153704643528
0.7366061068517645
0.25817074286187014
0.19915924258450976
0.5453312237100659
0.41049043147511743
0.5311391502191595
0.7623760686162572
0.6626605070711378
0.9746723108785851
0.9776916635425694
0.9922635013273102
0.9026920858942222
0.9467040630107213
0.774142214559429
0.9092861837570756
0.8449062970827476
0.9296751943609676
0.9571039332159131
0.9439106023959171
0.8867270488509917
0.9551936762487979
0.9497176649506107
0.9315233659519827
0.8721712998622136
0.9378202331494692
0.7756393199119622
0.6724987592767347
0.7916822822744646
0.7837218153262936
0.6880968027332013
0.8072826497754587
0.7995354493445972
0.9179234755772676
0.8568358663756845
0.9252353666619103
0.8409675157447466
0.9105649759285055
0.6405065035215172
0.7592482264687238
0.7510514548141375
0.6567029073288442
0.7674574517456725
0.5174806385005812
0.37103238332708477
0.5315394942015805
0.524540066521183
0.36031690616603806
0.5103983738669877
0.19317765022496924
0.19019071840881308
0.19921903816651193
0.19619141150190492
0.5454629395221555
0.3924742974137294
0.5593507869300297
0.5524048565944208
0.38175758059155607
0.5385100800545011
0.2052891626360642
0.20225177546751566
0.21137254041336773
0.20833194409374584
0.2080327965977456
0.38403116378920965
0.20359723869842
0.2168775239486238
0.39958479782372164
0.21246205466311774
0.5712516943601422
0.6979136116043254
0.5513851470019789
0.561393003635798
0.6753464364327753
0.5412960086753015
0.2256120414937925
0.41491053415707113
0.22126612418768854
0.42985353656248504
0.22988790933740652
0.7400149848323709
0.5905141544938788
0.5999012805382453
0.7194320552310748
0.5809609062248835
0.8404267316452068
0.9136747735062316
0.819895227694724
0.8303258613231119
0.9303935225622324
0.8501819193145602
0.9753177895894746
0.9806573158671936
0.9631055023477427
0.9694082400113355
0.7980313988787269
0.8742398679218114
0.7867982950484539
0.8950032918524164
0.8091654653939292
0.9473065126845011
0.9554312554884825
0.9383831953591428
0.47306569843442586
0.2523365924309229
0.25523265841278475
0.796681383203267
0.6476416269566952
0.6535340430957226
0.7845296925085451
0.6357542831672547
0.46335765087963793
0.6417182196630294
0.24656516483009722
0.24945241090248302
0.9716719435392759
0.8970414063875253
0.9025912059538446
0.9943377504639523
0.9995042390781037
1.000315929805289
0.998945683987685
0.9964418897397262
0.9609848722933212
0.9979619549294747
0.8838730162700476
0.8917752377306302
0.9533504505446321
0.8726038052650349
0.769610241032058
0.8783449024586871
1.0023065342306483
0.9926300622952362
0.9946937583757799
1.0040188687955964
0.9444454672306357
0.9902180878762368
0.7568661299434423
0.8666712740895973
0.4535711480175829
0.24070739583635486
0.24365959393259923
0.6210988350696914
0.6297298635960173
0.44103059050820015
0.6149992445750035
0.2376321949894004
0.9007114673185613
0.9654779206472348
0.9604597489891065
0.7037771691164674
0.8230026879073394
0.815158326349266
0.719973677736963
0.8387452707990268
0.9142706974082271
0.8308598368510828
0.9748722646189452
0.9702879282934007
0.40346701965684995
0.5738851999698583
0.5665449958061589
0.21789812322770685
0.21459045759850037
0.22537290572953284
0.4153113394255811
0.22141330163798925
0.5895455457212501
0.5814943871077716
0.42965536771704466
0.6077217472672932
0.7370293725570636
0.5982463289624698
0.23797049866363423
0.23035553950487178
0.4515729170722834
0.2532170797790383
0.7542850417408629
0.6175960112008938
0.9272901241798922
0.9831237931075483
0.9791782366048319
0.854310399558517
0.8466120062800849
0.9390896824808527
0.8615638007966352
0.9866224442548934
