# vtk DataFile Version 3.0
LucasCarvalhoTCC Results
ASCII

DATASET POLYDATA
FIELD FieldData 1
TIME 1 1 double
0.015414675859066232

POINTS 417 float
0.8749999999996735 0.0 0.0
0.9374999999998368 0.0 0.0
0.8124999999995102 0.0 0.0
0.6874999999991838 0.0 0.0
0.5624999999988572 0.0 0.0
0.4374999999988753 0.0 0.0
0.3124999999992381 0.0 0.0
0.1874999999995994 0.0 0.0
0.0624999999998897 0.0 0.0
0.0 0.0 0.0
0.749999999999347 0.0 0.0
0.6249999999990205 0.0 0.0
0.499999999998694 0.0 0.0
0.3749999999990567 0.0 0.0
0.2499999999994194 0.0 0.0
0.1249999999997794 0.0 0.0
1.0 0.0 0.0
1.0 1.0 0.0
1.0 0.1249999999997794 0.0
1.0 0.2499999999994194 0.0
1.0 0.3749999999990567 0.0
1.0 0.499999999998694 0.0
1.0 0.6249999999990205 0.0
1.0 0.749999999999347 0.0
1.0 0.8749999999996735 0.0
1.0 0.0624999999998897 0.0
1.0 0.1874999999995994 0.0
1.0 0.3124999999992381 0.0
1.0 0.4374999999988753 0.0
1.0 0.5624999999988572 0.0
1.0 0.6874999999991838 0.0
1.0 0.8124999999995102 0.0
1.0 0.9374999999998368 0.0
-0.0 1.0 0.0
0.8750000000003563 1.0 0.0
0.7500000000009891 1.0 0.0
0.6250000000015759 1.0 0.0
0.5000000000020591 1.0 0.0
0.3750000000015444 1.0 0.0
0.2500000000010296 1.0 0.0
0.1250000000005148 1.0 0.0
0.9375000000001781 1.0 0.0
0.8125000000006727 1.0 0.0
0.6875000000012825 1.0 0.0
0.5625000000018174 1.0 0.0
0.4375000000018018 1.0 0.0
0.312500000001287 1.0 0.0
0.1875000000007722 1.0 0.0
0.0625000000002574 1.0 0.0
0.0 0.8750000000003563 0.0
0.0 0.7500000000009891 0.0
0.0 0.6250000000015759 0.0
0.0 0.5000000000020591 0.0
0.0 0.3750000000015444 0.0
0.0 0.2500000000010296 0.0
0.0 0.1250000000005148 0.0
0.0 0.9375000000001781 0.0
0.0 0.8125000000006727 0.0
0.0 0.6875000000012825 0.0
0.0 0.5625000000018174 0.0
0.0 0.4375000000018018 0.0
0.0 0.312500000001287 0.0
0.0 0.1875000000007722 0.0
0.0 0.0625000000002574 0.0
0.5647364308662526 0.446732401698651 0.0
0.2354892605327167 0.5800652382235558 0.0
0.287250702605353 0.3933735249345629 0.0
0.1177446302663583 0.5400326191128075 0.0
0.1436253513026765 0.1966867624672815 0.0
0.2613699815690348 0.4867193815790594 0.0
0.1306849907845174 0.3683596907900445 0.0
0.4259935667358028 0.420052963316607 0.0
0.5323682154341558 0.7233662008493256 0.0
0.3677446302673879 0.7900326191117779 0.0
0.3968690985015953 0.6050427912141925 0.0
0.5323682154324733 0.2233662008493255 0.0
0.3379967833676111 0.2100264816583035 0.0
0.183872315133694 0.7700163095563834 0.0
0.7823682154331263 0.4733662008486725 0.0
0.7661841077170577 0.7366831004243363 0.0
0.7661841077162367 0.2366831004243725 0.0
0.1766169453995375 0.5600489286681817 0.0
0.1242148105254379 0.454196154951426 0.0
0.1960274861767761 0.4275395361845519 0.0
0.2484296210508757 0.5333923099013076 0.0
0.1863222157881568 0.4937942324263668 0.0
0.05887231513317917 0.5200163095574333 0.0
0.0653424953922587 0.3091798453955371 0.0
0.06210740526271893 0.4145980774764852 0.0
0.07181267565133824 0.09834338123364073 0.0
0.1371551710435969 0.282523226628663 0.0
0.06857758552179846 0.2037616133145889 0.0
0.2154380269540147 0.2950301437009222 0.0
0.2743103420871938 0.4400464532568111 0.0
0.2057327565653954 0.361284839942737 0.0
0.3566221346705779 0.406713244125585 0.0
0.411431332618699 0.5125478772653997 0.0
0.3291195400353151 0.5458810863966259 0.0
0.3428708373529465 0.4762971652611054 0.0
0.4953649988010277 0.433392682507629 0.0
0.5485523231502042 0.5850493012739884 0.0
0.4646186569678755 0.664204496031759 0.0
0.4799918278844516 0.548798589269694 0.0
0.5161841077181075 0.8616831004246628 0.0
0.4338723151347235 0.895016309555889 0.0
0.3823068643844916 0.6975377051629852 0.0
0.4492454860512995 0.779610402793824 0.0
0.3016169454000523 0.6850489286676669 0.0
0.3153682427176836 0.6154650075321464 0.0
0.3819951750517069 0.3150397224874552 0.0
0.4351824994000422 0.2166963412538145 0.0
0.548552323149363 0.3350493012739882 0.0
0.465273749100535 0.3250445118807217 0.0
0.2408110673351438 0.2033566220627925 0.0
0.2987166010028608 0.3050349330941887 0.0
0.2939983916835152 0.1050132408291517 0.0
0.1829055336674616 0.1016783110313962 0.0
0.5161841077155837 0.1116831004246628 0.0
0.4050912496995495 0.1083481706269072 0.0
0.2169361575673618 0.8850081547781917 0.0
0.2758084727005409 0.7800244643340807 0.0
0.3254042363510427 0.8900122321670404 0.0
0.09193615756684699 0.7600081547786863 0.0
0.1084680787836809 0.880004077389274 0.0
0.1508084727000262 0.6550244643345955 0.0
0.07540423635001309 0.6400122321680856 0.0
0.2262127090500392 0.6700366965011312 0.0
0.6492761615756067 0.7300246506368309 0.0
0.7580920538590235 0.8683415502121681 0.0
0.6371380807885914 0.8650123253184154 0.0
0.6735523231496894 0.4600493012736618 0.0
0.7742761615750919 0.6050246506365045 0.0
0.661414242362648 0.5950369759552463 0.0
0.8911841077165632 0.4866831004236832 0.0
0.8830920538585288 0.7433415502118417 0.0
0.887138080787546 0.6150123253177625 0.0
0.8790460269294426 0.871670775105921 0.0
0.649276161574355 0.230024650636849 0.0
0.7742761615746815 0.3550246506365225 0.0
0.6614142423620222 0.3450369759552553 0.0
0.7580920538577918 0.1183415502121862 0.0
0.6371380807866877 0.1150123253184245 0.0
0.8830920538581184 0.2433415502118959 0.0
0.879046026928896 0.1216707751059828 0.0
0.8871380807873408 0.3650123253177896 0.0
0.2060531029661271 0.5700570834458687 0.0
0.1814695805938472 0.5269215805472742 0.0
0.2173759184195163 0.5135932711638371 0.0
0.2419594407917962 0.5567287740624317 0.0
0.2117145106928217 0.5418251773048528 0.0
0.1471807878329479 0.5500407738904947 0.0
0.1209797203958981 0.4971143870321167 0.0
0.1552685131567973 0.4739951936888964 0.0
0.1512246504948726 0.5120179837896954 0.0
0.1274499006549776 0.4112779228707353 0.0
0.1633562384806467 0.3979496134872982 0.0
0.1911748509824664 0.4606668843054593 0.0
0.159312375818722 0.4359724035880972 0.0
0.2286987338729055 0.4571294588818057 0.0
0.2548998013099553 0.5100558457401835 0.0
0.2230373261462109 0.4853613650228214 0.0
0.08830847269976874 0.5300244643351204 0.0
0.06048986019794905 0.4673071935169593 0.0
0.09316110789407842 0.4343971162139556 0.0
0.09073479029692358 0.482210790274538 0.0
0.02943615756658959 0.5100081547797461 0.0
0.03105370263135946 0.3947990387390148 0.0
0.03024493009897453 0.4524035967593805 0.0
0.03267124769612935 0.2795899226982834 0.0
0.06372495032748882 0.3618889614360111 0.0
0.03186247516374441 0.337194480718649 0.0
0.09801374308838805 0.3387697680927908 0.0
0.09558742549123322 0.3865834421533731 0.0
0.06696004045702858 0.256470729355063 0.0
0.1028663782826977 0.2431424199716259 0.0
0.1339200809140572 0.3254414587093538 0.0
0.1004400606855429 0.2909560940322084 0.0
0.03428879276089923 0.1643808066575518 0.0
0.03348002022851429 0.2219853646779176 0.0
0.03590633782566912 0.04917169061682036 0.0
0.07019513058656834 0.1510524972741148 0.0
0.03509756529328417 0.1067762486371861 0.0
0.1077190134770074 0.1475150718504611 0.0
0.1403902611731367 0.2396049945479723 0.0
0.1052926958798525 0.1953287459110435 0.0
0.2008801213710857 0.3944121880636445 0.0
0.2400215493262946 0.4006656465997741 0.0
0.2678401618281143 0.4633829174179352 0.0
0.2343601415996001 0.4288975527407898 0.0
0.1714439638044962 0.3219040332857001 0.0
0.1674001011425715 0.3599268233864991 0.0
0.1795316891283456 0.2458584530841018 0.0
0.2105853917597051 0.3281574918218296 0.0
0.1754878264664209 0.2838812431849009 0.0
0.2513443647796839 0.3442018343177425 0.0
0.2807805223462734 0.416709989095687 0.0
0.2456829570529892 0.3724337404587583 0.0
0.3219364186379655 0.4000433845300739 0.0
0.3497464860117622 0.4415052046933452 0.0
0.3085905897200701 0.4581718092589582 0.0
0.3152635041790178 0.4291075968945161 0.0
0.3913078507031904 0.413383103721096 0.0
0.4187124496772509 0.4663004202910034 0.0
0.3771510849858227 0.4944225212632526 0.0
0.3842294678445065 0.4539028124921743 0.0
0.4041502155601472 0.5587953342397961 0.0
0.3629943192684552 0.5754619388054092 0.0
0.3359951886941308 0.5110891258288657 0.0
0.370072702127139 0.5349422300343308 0.0
0.2952447608021749 0.5163002339878426 0.0
0.3019176752611226 0.4872360216234005 0.0
0.4606792827684152 0.426722822912118 0.0
0.4876784133427396 0.4910956358886616 0.0
0.4457115802515753 0.5306732332675469 0.0
0.4531954315099953 0.4786980280898325 0.0
0.5300507148336402 0.44006254210314 0.0
0.5566443770082283 0.5158908514863196 0.0
0.5142720755173279 0.5669239452718412 0.0
0.522161395175484 0.5034932436874906 0.0
0.54046026929218 0.654207751061657 0.0
0.4984934362010157 0.6937853484405423 0.0
0.4723052424261636 0.6065015426507265 0.0
0.5063827558591718 0.6303546468561917 0.0
0.4307438777347354 0.6346236436229757 0.0
0.4382277289931554 0.5826484384452614 0.0
0.4569320715095875 0.7219074494127915 0.0
0.4157761752178956 0.7385740539784046 0.0
0.3895879814430434 0.6512902481885888 0.0
0.4232600264763154 0.6865988488006901 0.0
0.5242761615761317 0.7925246506369942 0.0
0.4827147968847035 0.8206467516092434 0.0
0.4906041165428595 0.7572160500248929 0.0
0.5080920538600833 0.9308415502123314 0.0
0.4669361575683914 0.9475081547779445 0.0
0.4415589005930115 0.8373133561748565 0.0
0.4748254772265474 0.884077453193594 0.0
0.4008084727010557 0.8425244643338334 0.0
0.3750257473259397 0.7437851621373816 0.0
0.4082923239594756 0.7905492591561191 0.0
0.3222438913764993 0.5806730469643862 0.0
0.2818989318842797 0.574428658716727 0.0
0.2885718463432273 0.5453644463522848 0.0
0.3488375535510876 0.6565013563475658 0.0
0.3559159364097714 0.6159816475764875 0.0
0.3346807878337201 0.7375407738897224 0.0
0.308492594058868 0.6502569680999066 0.0
0.3417591706924039 0.6970210651186441 0.0
0.2685531029663845 0.6325570834456113 0.0
0.2752260174253321 0.6034928710811692 0.0
0.4803193739507813 0.3792185971941754 0.0
0.506913036124949 0.3300469065773549 0.0
0.5566443770078078 0.3908908514863196 0.0
0.5184818754792946 0.3850547243402475 0.0
0.4039943708937548 0.3675463429020311 0.0
0.4236344620761209 0.3200421171840885 0.0
0.4421568724222681 0.3733824700481033 0.0
0.359995979209659 0.2625331020728794 0.0
0.3865896413838267 0.213361411456059 0.0
0.4502281242502886 0.2708704265672681 0.0
[...]
POINT_DATA 417

SCALARS Temperature float 1

LOOKUP_TABLE Temperature
0.0
0.0
0.0
0.0
0.0
0.0
0.0
0.0
0.0
0.0
0.0
0.0
0.0
0.0
0.0
0.0
0.1573629957777988
0.0
0.46467002442257793
0.7614051372858069
0.943911319908163
1.0038630056108553
0.9393286145505699
0.7501159899687919
0.43591868803781647
0.2906363819867769
0.6258722196167877
0.8677921701636995
0.9893274451653032
0.9871732293908766
0.8603191316271896
0.608676185923638
0.23157386750648284
0.0
0.0
0.0
0.0
0.0
0.0
0.0
0.0
0.0
0.0
0.0
0.0
0.0
0.0
0.0
0.0
0.43701217645340157
0.7497405926460434
0.9377918511710646
1.001395420265171
0.9386520570822361
0.7508763989973144
0.43815318635347633
0.23397476159776937
0.608952234260717
0.8593559230936947
0.9850778290100608
0.9856469248059394
0.8603952886316206
0.6101372759698083
0.23482969809483947
0.9915340855888917
0.97402381291872
0.9546765626107154
0.9939041003564296
0.6321224871875244
0.9994426773898804
0.9306257428361533
0.975956771636202
0.8023752273156929
0.6637609313458275
0.9564200970091261
0.6956476426600042
0.6644472173129635
0.7086020475745178
1.0005141402717386
0.7781721376345367
0.7281805072847043
0.9854577056422439
0.9916733540027344
0.9789580897381465
0.9951027953726135
0.9996301816711586
0.9993802948902992
0.8545825494944006
0.9713235044310433
0.35492473174063877
0.8110475554062824
0.6490271451530901
0.831436503270761
0.9854136083827902
0.9228704559300359
0.9653693625111102
1.000450325807835
0.9918430615593306
0.9980872288952568
0.9846413463595325
0.9743477729372703
0.8932589530463942
0.9925375520338516
0.477798538852073
0.37610558730328014
0.8439792074890388
0.6877058789359545
0.8623945631984264
0.9466406326014523
0.8644094129511813
0.6801428123541062
0.8934698287637446
0.8792923942860467
0.6485499986998102
0.8486421148023314
0.3763072269983567
0.3655718424832408
0.3977513298440981
0.38701816099386327
0.40718623776319496
0.686626772752537
0.3917291193112866
0.7296477194060064
0.42233480019003466
0.904292835866652
0.922005070514894
0.8850509830743098
0.7903967694897048
0.4583666261385399
0.4680972998094371
0.9965230735036144
0.957097635191942
0.9661602150374047
1.0031094020895313
0.763099171121016
0.9487669870952864
0.4484946507843907
0.7116087340691183
0.9206124919742246
0.90729519295153
0.421850762144919
0.4091356242110541
0.7456100426654373
0.43911792245687953
0.933151735353636
0.9801919193568709
0.9968759876889316
0.9990024339161437
0.9868105016454064
0.9927285393003673
0.9896299789382809
1.000145035697202
0.9971910039466175
0.999319623224197
0.9684997148708605
0.9582726312324207
0.9936458197983317
0.9834946581387544
0.9925931614497993
0.9996019199588633
0.9989824624192712
0.9970937680968854
0.9964217580973492
0.983047270115128
0.9991768600524709
1.0008131488799896
0.9565199341999492
0.9919019458562971
0.8061665160763252
0.9240507214822665
0.8946165553780298
0.8960833731906119
0.948679993364842
0.7628579779994618
0.7358958375149677
0.8781313533284927
0.8252374563953067
0.5497677818231635
0.691205388505239
0.18720495835976492
0.5130829476604761
0.38179266055587535
0.5032476484052008
0.7282289926277755
0.6286682590369476
0.9556278982250022
0.9601478187017849
0.9947410618153861
0.9799438158663335
0.8733059538381315
0.9214320523965691
0.7417022340677752
0.8811987049878792
0.8127408812136864
0.9023815534043653
0.972271256053211
0.9346294583531829
0.960316247261436
0.9866876795177947
0.993096775463369
0.9800648712386401
0.9709828906656182
0.9967773686949621
1.0005571680795868
0.9923449655548333
0.9869903516956848
0.9776195129008115
0.9997732710178704
0.9956363329569088
0.9990215465212937
0.9994356599565343
0.9804979011293208
1.0020588409161801
0.9977719362592968
1.0000017615988415
0.9883545390805973
1.0030145965252926
0.9847470692358248
1.0030161946925273
0.9073988333719178
0.8512820378347594
0.9562240112197364
0.9340829915022012
0.9283090656964555
0.9738522882793164
0.8037255946726802
0.7725055816573949
0.908796826106398
0.8611685221412282
0.6591951558642853
0.5894627938995005
0.7364086664035563
0.2581091896443165
0.1991123612340135
0.5451915622669646
0.41038870591075405
0.5310036145532678
0.7621704307474048
0.6624859518784374
0.974395951307345
0.9774142692674607
0.9919810044266125
0.9024404285404415
0.9464373698519335
0.7739328533112745
0.9090322943839222
0.8446739429602961
0.9294144022154531
0.956833698752112
0.9436447520481884
0.8864806013088387
0.9549238636098033
0.9494497787574028
0.9312618341344372
0.8719298044610754
0.9375565100951162
0.7754294423013582
0.6723211802214479
0.7914671720148193
0.783509308607099
0.687914342883514
0.8070624009973786
0.7993177578484574
0.9176666367056073
0.8565995378674585
0.924976017329707
0.8407364768470184
0.9103106491877127
0.6403387324193884
0.7590436364777725
0.750849494860678
0.656530209536142
0.7672502205218215
0.517349041692726
0.3709413191547276
0.5314038367613381
0.5244064391637829
0.3602286993492121
0.510268797161847
0.1931322621588408
0.19014605887545516
0.19917215715207226
0.19614528185823726
0.5453231980673146
0.3923773712662114
0.5592069134240873
0.5522630567982577
0.381663608741889
0.5383723854753462
0.20524075615990156
0.20220413559710876
0.2113225684698926
0.20828276142279434
0.20798375227364063
0.38393661585904626
0.20354927766029174
0.21682629826553423
0.39948608507711725
0.21241192213126556
0.5711045837060944
0.6977283374042973
0.5512438138209784
0.5612487725186186
0.675168077998004
0.541157574565654
0.22555861255087514
0.41480764562542666
0.22121380061053392
0.4297464569948575
0.2298333587050506
0.73981648227415
0.5903613326179721
0.599745624347389
0.719240075813983
0.5808109324798203
0.8401959199657054
0.913419489588341
0.8196711659660794
0.8300983813251691
0.930132531000795
0.8499478701391694
0.9750413084922336
0.9803789723794353
0.96283326281804
0.9691338145358019
0.797814430290943
0.8739978299070554
0.7865849425152363
0.8947543224426309
0.8089448965941243
0.9470397093000967
0.9551616635038209
0.9381194309225479
0.47294666048947714
0.25227638163436683
0.2551717654906918
0.7964646926623276
0.6474715531678545
0.6533622693724849
0.7843167529593431
0.6355876793883436
0.46324119389914187
0.6415498681180014
0.24650635572408983
0.24939289537581977
0.9713964494455167
0.8967914417401227
0.9023394519382246
0.99405424864766
0.999218887579411
1.0000303574731277
0.9986604475639634
0.9961574903441649
0.9607128998947095
0.9976770761909651
0.8836272540877247
0.8915269658507234
0.9530810218001626
0.8723617718198557
0.7694018290179188
0.8781009584194251
1.0020200274334243
0.9923469368605384
0.9944099326198035
1.0037317152816638
0.9441790961450194
0.9899358022261848
0.7566618165120735
0.8664312390835895
0.4534573536593967
0.2406500440404879
0.24360150430613453
0.6209363527542573
0.6295650422097291
0.44091993855504125
0.6148386321713714
0.23757561042043218
0.9004602046807493
0.9652044283541628
0.9601880531567412
0.7035897412315029
0.8227771951184077
0.8149354506253412
0.7197810980492628
0.8385145381653236
0.9140147371630073
0.8306317256940712
0.9745954107041459
0.9700127137509035
0.40336701796572383
0.5737369590952961
0.566398962339032
0.2178464669168833
0.2145396588989273
0.2253193047031059
0.4152080091736293
0.22136073015239668
0.5893926159795314
0.5813438612662462
0.42954805802340945
0.6075634866442815
0.7368314108055605
0.5980908288987963
0.2379137074062092
0.23030065727201413
0.45145979949484716
0.2531565968514027
0.7540816693967627
0.6174348999078992
0.9270296638830609
0.9828439962027501
0.9788998458693401
0.8540745074064944
0.8463786654183321
0.9388251359094699
0.8613254895950255
0.9863414004193416
