# vtk DataFile Version 3.0
LucasCarvalhoTCC Results
ASCII

DATASET POLYDATA
FIELD FieldData 1
TIME 1 1 double
0.031040028067104736

POINTS 113 float
0.0 0.0 0.0
1.0 0.0 0.0
1.0 1.0 0.0
-0.0 1.0 0.0
0.1249999999997794 0.0 0.0
0.2499999999994194 0.0 0.0
0.3749999999990567 0.0 0.0
0.499999999998694 0.0 0.0
0.6249999999990205 0.0 0.0
0.749999999999347 0.0 0.0
0.8749999999996735 0.0 0.0
1.0 0.1249999999997794 0.0
1.0 0.2499999999994194 0.0
1.0 0.3749999999990567 0.0
1.0 0.499999999998694 0.0
1.0 0.6249999999990205 0.0
1.0 0.749999999999347 0.0
1.0 0.8749999999996735 0.0
0.8750000000003563 1.0 0.0
0.7500000000009891 1.0 0.0
0.6250000000015759 1.0 0.0
0.5000000000020591 1.0 0.0
0.3750000000015444 1.0 0.0
0.2500000000010296 1.0 0.0
0.1250000000005148 1.0 0.0
0.0 0.8750000000003563 0.0
0.0 0.7500000000009891 0.0
0.0 0.6250000000015759 0.0
0.0 0.5000000000020591 0.0
0.0 0.3750000000015444 0.0
0.0 0.2500000000010296 0.0
0.0 0.1250000000005148 0.0
0.5647364308662526 0.446732401698651 0.0
0.2354892605327167 0.5800652382235558 0.0
0.287250702605353 0.3933735249345629 0.0
0.1177446302663583 0.5400326191128075 0.0
0.1436253513026765 0.1966867624672815 0.0
0.2613699815690348 0.4867193815790594 0.0
0.1306849907845174 0.3683596907900445 0.0
0.4259935667358028 0.420052963316607 0.0
0.5323682154341558 0.7233662008493256 0.0
0.3677446302673879 0.7900326191117779 0.0
0.3968690985015953 0.6050427912141925 0.0
0.5323682154324733 0.2233662008493255 0.0
0.3379967833676111 0.2100264816583035 0.0
0.183872315133694 0.7700163095563834 0.0
0.7823682154331263 0.4733662008486725 0.0
0.7661841077170577 0.7366831004243363 0.0
0.7661841077162367 0.2366831004243725 0.0
0.1766169453995375 0.5600489286681817 0.0
0.1242148105254379 0.454196154951426 0.0
0.1960274861767761 0.4275395361845519 0.0
0.2484296210508757 0.5333923099013076 0.0
0.1863222157881568 0.4937942324263668 0.0
0.05887231513317917 0.5200163095574333 0.0
0.0653424953922587 0.3091798453955371 0.0
0.06210740526271893 0.4145980774764852 0.0
0.07181267565133824 0.09834338123364073 0.0
0.1371551710435969 0.282523226628663 0.0
0.06857758552179846 0.2037616133145889 0.0
0.2154380269540147 0.2950301437009222 0.0
0.2743103420871938 0.4400464532568111 0.0
0.2057327565653954 0.361284839942737 0.0
0.3566221346705779 0.406713244125585 0.0
0.411431332618699 0.5125478772653997 0.0
0.3291195400353151 0.5458810863966259 0.0
0.3428708373529465 0.4762971652611054 0.0
0.4953649988010277 0.433392682507629 0.0
0.5485523231502042 0.5850493012739884 0.0
0.4646186569678755 0.664204496031759 0.0
0.4799918278844516 0.548798589269694 0.0
0.5161841077181075 0.8616831004246628 0.0
0.4338723151347235 0.895016309555889 0.0
0.3823068643844916 0.6975377051629852 0.0
0.4492454860512995 0.779610402793824 0.0
0.3016169454000523 0.6850489286676669 0.0
0.3153682427176836 0.6154650075321464 0.0
0.3819951750517069 0.3150397224874552 0.0
0.4351824994000422 0.2166963412538145 0.0
0.548552323149363 0.3350493012739882 0.0
0.465273749100535 0.3250445118807217 0.0
0.2408110673351438 0.2033566220627925 0.0
0.2987166010028608 0.3050349330941887 0.0
0.2939983916835152 0.1050132408291517 0.0
0.1829055336674616 0.1016783110313962 0.0
0.5161841077155837 0.1116831004246628 0.0
0.4050912496995495 0.1083481706269072 0.0
0.2169361575673618 0.8850081547781917 0.0
0.2758084727005409 0.7800244643340807 0.0
0.3254042363510427 0.8900122321670404 0.0
0.09193615756684699 0.7600081547786863 0.0
0.1084680787836809 0.880004077389274 0.0
0.1508084727000262 0.6550244643345955 0.0
0.07540423635001309 0.6400122321680856 0.0
0.2262127090500392 0.6700366965011312 0.0
0.6492761615756067 0.7300246506368309 0.0
0.7580920538590235 0.8683415502121681 0.0
0.6371380807885914 0.8650123253184154 0.0
0.6735523231496894 0.4600493012736618 0.0
0.7742761615750919 0.6050246506365045 0.0
0.661414242362648 0.5950369759552463 0.0
0.8911841077165632 0.4866831004236832 0.0
0.8830920538585288 0.7433415502118417 0.0
0.887138080787546 0.6150123253177625 0.0
0.8790460269294426 0.871670775105921 0.0
0.649276161574355 0.230024650636849 0.0
0.7742761615746815 0.3550246506365225 0.0
0.6614142423620222 0.3450369759552553 0.0
0.7580920538577918 0.1183415502121862 0.0
0.6371380807866877 0.1150123253184245 0.0
0.8830920538581184 0.2433415502118959 0.0
0.879046026928896 0.1216707751059828 0.0
0.8871380807873408 0.3650123253177896 0.0

POLYGONS 192 768
3 100 46 99
3 46 100 98
3 91 24 3
3 25 91 3
3 90 25 26
3 25 90 91
3 15 103 14
3 104 17 2
3 17 104 16
3 18 104 2
3 104 102 16
3 102 15 16
3 15 102 103
3 96 18 19
3 18 96 104
3 67 32 70
3 64 67 70
3 63 34 82
3 77 63 82
3 103 101 14
3 101 103 99
3 46 101 99
3 90 45 91
3 45 90 92
3 68 100 95
3 40 68 95
3 32 68 70
3 100 68 98
3 68 32 98
3 71 20 21
3 93 35 92
3 90 93 92
3 27 93 26
3 93 90 26
3 6 83 5
3 47 102 104
3 96 47 104
3 47 96 95
3 47 100 99
3 100 47 95
3 103 47 99
3 102 47 103
3 44 77 82
3 77 39 63
3 64 39 67
3 79 32 67
3 8 85 7
3 45 87 91
3 87 24 91
3 73 74 41
3 71 74 40
3 73 75 76
3 75 73 41
3 68 69 70
3 69 68 40
3 74 69 40
3 69 74 73
3 74 72 41
3 72 74 71
3 22 72 21
3 72 71 21
3 71 97 20
3 20 97 19
3 97 96 19
3 96 97 95
3 97 40 95
3 97 71 40
3 35 49 92
3 49 33 92
3 66 39 64
3 39 66 63
3 57 31 0
3 4 57 0
3 101 13 14
3 107 79 105
3 32 107 98
3 79 107 32
3 109 108 105
3 109 85 8
3 9 109 8
3 109 9 108
3 86 6 7
3 85 86 7
3 6 86 83
3 86 44 83
3 79 43 105
3 43 109 105
3 109 43 85
3 87 23 24
3 88 75 41
3 88 87 45
3 94 33 76
3 75 94 76
3 33 94 92
3 94 45 92
3 94 88 45
3 88 94 75
3 42 64 70
3 69 42 70
3 42 73 76
3 42 69 73
3 72 89 41
3 89 88 41
3 88 89 87
3 89 72 22
3 23 89 22
3 89 23 87
3 55 29 30
3 54 50 35
3 54 27 28
3 54 93 27
3 93 54 35
3 29 56 28
3 56 54 28
3 54 56 50
3 50 56 38
3 56 55 38
3 55 56 29
3 34 62 82
3 62 60 82
3 44 81 83
3 81 44 82
3 60 81 82
3 50 53 35
3 53 49 35
3 33 65 76
3 65 66 64
3 65 42 76
3 42 65 64
3 84 4 5
3 83 84 5
3 4 84 57
3 81 84 83
3 112 101 46
3 112 13 101
3 13 112 12
3 11 111 1
3 111 10 1
3 9 10 108
3 10 111 108
3 80 43 79
3 80 39 77
3 39 80 67
3 80 79 67
3 78 86 85
3 43 78 85
3 86 78 44
3 44 78 77
3 78 80 77
3 80 78 43
3 59 55 30
3 31 59 30
3 59 31 57
3 51 53 50
3 51 50 38
3 62 51 38
3 51 62 34
3 49 52 33
3 53 52 49
3 52 65 33
3 106 112 46
3 106 46 98
3 107 106 98
3 112 110 12
3 110 11 12
3 11 110 111
3 106 110 112
3 59 58 55
3 55 58 38
3 58 62 38
3 62 58 60
3 65 37 66
3 52 37 65
3 51 37 53
3 37 52 53
3 48 110 106
3 48 107 105
3 48 106 107
3 108 48 105
3 111 48 108
3 110 48 111
3 36 58 59
3 36 84 81
3 36 81 60
3 58 36 60
3 84 36 57
3 36 59 57
3 37 61 66
3 63 61 34
3 66 61 63
3 61 51 34
3 61 37 51

POINT_DATA 113

SCALARS Temperature float 1

LOOKUP_TABLE Temperature
0.0
0.0
1.0
0.0
0.0
0.0
0.0
0.0
0.0
0.0
0.0
1.0
1.0
1.0
1.0
1.0
1.0
1.0
1.0
1.0
1.0
1.0
1.0
1.0
1.0
0.0
0.0
0.0
0.0
0.0
0.0
0.0
1.2330593940071106
0.596092566833414
0.5966846442963423
0.2859523063212689
0.14485361962240484
0.6223254832667021
0.2428423957025601
1.0338883058539001
1.1193606549546768
0.9035445026356864
1.0349595177179272
0.5625119697161052
0.37096739674295187
0.5483345701120816
1.0242195582999156
1.06497901611566
0.6753152822394386
0.4389424842662767
0.2714316764077854
0.416767028031819
0.6139316526892894
0.43478592954296935
0.13935871613882106
0.10349971138071634
0.1262961774894816
0.03533085521864884
0.19975465598290312
0.07219873681211281
0.3303109090976152
0.6176223333914196
0.38141531935290957
0.7999234002813393
1.1282439782158922
0.8527848361945836
0.8616343894880031
1.187621860052234
1.3243588180688637
1.1192933943812244
1.2873365690660132
1.0183644943718217
0.9765896583330177
0.9435466284469041
1.002795672164027
0.7778612667179576
0.8133136705086612
0.6562022009283665
0.4802344801006595
0.8973488225625637
0.8100619610692855
0.2552668930716079
0.4840010900803043
0.15945220586234862
0.09616971176745934
0.2706759269656856
0.22015933038020924
0.7534347554464863
0.7503308698508507
0.8947280429322229
0.2945314505939888
0.488534299956073
0.40435108088970495
0.2026415299110578
0.5984201634507522
1.1180866503187525
1.0301226145940694
1.040122863893009
1.1146844676765326
1.0801584300120735
1.182750659796591
0.9992496494214996
1.0275321018484516
1.0289058214446793
1.014392211245701
0.6172672261066248
0.8910548981155368
0.9037401667834216
0.38013530291211384
0.3150676927857031
0.7946766528097913
0.5421447776249029
0.928427369607156
