# vtk DataFile Version 3.0
LucasCarvalhoTCC Results
ASCII

DATASET POLYDATA
FIELD FieldData 1
TIME 1 1 double
0.0

POINTS 600 float
0.0 2.0 0.0
0.25 1.989125 0.0
0.5 1.958 0.0
0.75 1.908875 0.0
1.0 1.844 0.0
1.25 1.765625 0.0
1.5 1.676 0.0
1.75 1.577375 0.0
2.0 1.472 0.0
2.25 1.362125 0.0
2.5 1.25 0.0
2.75 1.137875 0.0
3.0 1.028 0.0
3.25 0.922625 0.0
3.5 0.8240000000000001 0.0
3.75 0.734375 0.0
4.0 0.6560000000000001 0.0
4.25 0.5911249999999999 0.0
4.5 0.542 0.0
4.75 0.510875 0.0
5.0 0.5 0.0
5.25 0.5036250000000004 0.0
5.5 0.5140000000000002 0.0
5.75 0.5303750000000003 0.0
6.0 0.5519999999999996 0.0
6.25 0.578125 0.0
6.5 0.6080000000000005 0.0
6.75 0.6408749999999999 0.0
7.0 0.6760000000000002 0.0
7.25 0.7126249999999992 0.0
7.5 0.75 0.0
7.75 0.7873750000000004 0.0
8.0 0.8239999999999994 0.0
8.25 0.8591250000000001 0.0
8.5 0.8919999999999999 0.0
8.75 0.921875 0.0
9.0 0.9479999999999991 0.0
9.25 0.9696250000000011 0.0
9.5 0.9859999999999984 0.0
9.75 0.9963750000000013 0.0
10.0 1.0 0.0
0.0 0.0 0.0
10.0 0.0 0.0
0.124999999999674 1.994562500000014 0.0
0.3749999999999947 1.973562500000001 0.0
0.6249999999999918 1.933437500000002 0.0
0.874999999999979 1.876437500000006 0.0
1.124999999999963 1.804812500000012 0.0
1.374999999999944 1.72081250000002 0.0
1.624999999999985 1.626687500000006 0.0
1.874999999999953 1.52468750000002 0.0
2.124999999999936 1.417062500000028 0.0
2.374999999999952 1.306062500000022 0.0
2.624999999999919 1.193937500000036 0.0
2.87499999999992 1.082937500000035 0.0
3.124999999999946 0.9753125000000229 0.0
3.374999999999948 0.8733125000000204 0.0
3.624999999999972 0.77918750000001 0.0
3.874999999999963 0.6951875000000118 0.0
4.124999999999968 0.6235625000000082 0.0
4.394409538298571 0.5627485257243309 0.0
4.583333333333322 0.5316250000000015 0.0
4.666666666666668 0.5212499999999999 0.0
4.833333333333334 0.50725 0.0
4.916666666666667 0.503625 0.0
5.083333333333334 0.5012083333333335 0.0
5.166666666666666 0.502416666666667 0.0
5.333333333333334 0.5070833333333337 0.0
5.416666666666667 0.510541666666667 0.0
5.583333333333334 0.5194583333333336 0.0
5.666666666666666 0.5249166666666669 0.0
5.833333333333338 0.5375833333333339 0.0
5.916666666666661 0.544791666666666 0.0
6.105781577147724 0.5630541748119369 0.0
6.375 0.5930625000000003 0.0
6.624999999999988 0.6244374999999988 0.0
6.874999999999994 0.6584374999999991 0.0
7.125 0.6943124999999997 0.0
7.375 0.7313124999999996 0.0
7.624999999999994 0.7686874999999992 0.0
7.875 0.8056874999999999 0.0
8.125 0.8415624999999998 0.0
8.374999999999991 0.8755624999999989 0.0
8.624999999999995 0.9069374999999993 0.0
8.874999999999995 0.9349374999999991 0.0
9.125 0.9588125000000001 0.0
9.375 0.9778124999999998 0.0
9.625 0.9911874999999999 0.0
9.875 0.9981875000000007 0.0
0.0 1.799999999999167 0.0
0.0 1.6 0.0
0.0 1.400000000001387 0.0
0.0 1.200000000002774 0.0
0.0 1.000000000004117 0.0
0.0 0.8000000000033287 0.0
0.0 0.6000000000024965 0.0
0.0 0.4000000000016644 0.0
0.0 0.200000000000832 0.0
0.199999999999856 0.0 0.0
0.3999999999996677 0.0 0.0
0.5999999999994683 0.0 0.0
0.7999999999993286 0.0 0.0
0.9999999999991888 0.0 0.0
1.199999999999033 0.0 0.0
1.399999999998576 0.0 0.0
1.599999999997992 0.0 0.0
1.799999999997408 0.0 0.0
1.999999999996825 0.0 0.0
2.199999999996241 0.0 0.0
2.399999999995657 0.0 0.0
2.599999999995073 0.0 0.0
2.79999999999449 0.0 0.0
2.999999999993906 0.0 0.0
3.199999999993322 0.0 0.0
3.399999999992738 0.0 0.0
3.599999999992154 0.0 0.0
3.799999999991571 0.0 0.0
3.999999999991022 0.0 0.0
4.199999999991187 0.0 0.0
4.399999999991491 0.0 0.0
4.599999999991795 0.0 0.0
4.799999999992099 0.0 0.0
4.999999999992403 0.0 0.0
5.199999999992706 0.0 0.0
5.39999999999301 0.0 0.0
5.599999999993313 0.0 0.0
5.799999999993618 0.0 0.0
5.999999999993922 0.0 0.0
6.199999999994227 0.0 0.0
6.39999999999453 0.0 0.0
6.599999999994833 0.0 0.0
6.799999999995138 0.0 0.0
6.999999999995442 0.0 0.0
7.199999999995747 0.0 0.0
7.39999999999605 0.0 0.0
7.599999999996353 0.0 0.0
7.799999999996658 0.0 0.0
7.999999999996962 0.0 0.0
8.199999999997265 0.0 0.0
8.399999999997569 0.0 0.0
8.599999999997873 0.0 0.0
8.799999999998176 0.0 0.0
8.99999999999848 0.0 0.0
9.199999999998786 0.0 0.0
9.399999999999089 0.0 0.0
9.599999999999392 0.0 0.0
9.799999999999697 0.0 0.0
10.0 0.1999999999995579 0.0
10.0 0.3999999999989749 0.0
10.0 0.5999999999989468 0.0
10.0 0.7999999999994734 0.0
0.913963423524136 0.9126937851647636 0.0
1.629657910441747 0.8286436141773268 0.0
2.300136613917738 0.6369890708869279 0.0
0.5989085226155619 1.38125543468559 0.0
1.274155622640533 1.242773398230304 0.0
2.860215383945273 0.5217401976756945 0.0
9.469653920408135 0.4910067017840992 0.0
8.984679546317787 0.4696119782494839 0.0
8.499397693277212 0.4463630640980716 0.0
3.270918412356206 0.4522692359356972 0.0
1.223039611612243 0.5146439900227544 0.0
2.024812732135938 1.00818256045515 0.0
0.5365376864627701 0.5434316309416508 0.0
8.114834335444021 0.4602948767329583 0.0
7.742261962994204 0.4117304941858466 0.0
0.9443382341364558 1.456061359265878 0.0
1.665275621558886 1.201744468407863 0.0
1.89566112584099 0.4397284596316843 0.0
3.691409759982064 0.3560936332572802 0.0
7.368457390036411 0.3792926046732459 0.0
0.5071184951703254 0.9340893429149442 0.0
0.3822273842356539 1.647625881691675 0.0
5.916285335387544 0.2564903116750689 0.0
5.628860531758535 0.2582323053999509 0.0
5.380471017960128 0.2502349014663197 0.0
5.139244585769944 0.2549145445969738 0.0
2.686085237972266 0.8031095648160084 0.0
4.507599040026292 0.263176944655695 0.0
6.983755234374982 0.3380000000001097 0.0
9.720925955181613 0.6635813325201156 0.0
1.288006195687152 0.8759679848503046 0.0
9.20556379558699 0.6923669083350594 0.0
2.319913492084225 0.9512500928262699 0.0
8.73203612228155 0.6151508464420534 0.0
4.868679481352366 0.2526598053940744 0.0
4.10358044398202 0.3012437332986487 0.0
6.602422946953217 0.3126221952225479 0.0
2.534693527909069 0.3583319619586092 0.0
6.193332317503376 0.2894654215336858 0.0
0.8804088217382579 0.3735513844182569 0.0
0.7663303172393539 1.679065267574722 0.0
3.081211528283084 0.6968015573146217 0.0
1.241762689885858 1.521465072418641 0.0
1.573472750763779 0.3374689934575129 0.0
1.475107933015155 1.403918544935278 0.0
0.8212739503602162 1.195790902469637 0.0
4.681049549092561 0.3558177014380842 0.0
9.439519900118443 0.7366884444350511 0.0
2.201393787062887 0.3261463175998884 0.0
2.015369189818184 0.7109460688851087 0.0
8.32727069655695 0.6360373328685593 0.0
8.961488632119996 0.7119124617705204 0.0
9.22773266034565 0.3109430611770705 0.0
0.3000513553073295 1.178778127105867 0.0
1.91985473842554 1.233084801189704 0.0
8.749827252515535 0.3049638092131281 0.0
3.50551132590258 0.5576614504134195 0.0
3.040500962406976 0.290446660105673 0.0
9.72097519930939 0.3037986529514364 0.0
0.3073166349239687 0.3249300260882615 0.0
0.2948185331392187 0.7229775107826154 0.0
1.46029425821417 1.06552904833304 0.0
0.8085718129253527 0.673531272847494 0.0
7.913326191751847 0.5738936378911789 0.0
8.295349499871781 0.2556682497524391 0.0
4.31359646688283 0.3665214152100782 0.0
7.542842082022704 0.5249918217576657 0.0
1.058357552227335 1.116692590939024 0.0
2.214297272750292 1.159898327391242 0.0
2.901187336648686 0.8282146771898153 0.0
3.933498145061447 0.4325241689837319 0.0
7.956006969037984 0.2667411694088205 0.0
7.172393179434975 0.4835114022190097 0.0
1.440243631802057 0.6689433452646625 0.0
3.458541882144431 0.2581755850286561 0.0
5.791617360065465 0.3978542524532168 0.0
5.981529865241493 0.3900667299390458 0.0
1.083462543944253 0.7203994120564634 0.0
1.78518471978951 1.008552691762234 0.0
2.77360122246243 0.2689852172070111 0.0
2.565134389978369 0.9928826788184764 0.0
2.543046005790158 0.6034091352176242 0.0
3.293038780485421 0.6769811703257343 0.0
6.790787388653942 0.4353933509634578 0.0
1.140204059461831 0.2538227257007896 0.0
0.6242104065654487 0.2738473600765566 0.0
6.393430278703709 0.3766405270445946 0.0
8.533059390324546 0.6950580701614406 0.0
0.9961263693263854 1.612128843772703 0.0
1.697598586607002 0.5781950992180334 0.0
8.087930458724863 0.6517815437732153 0.0
0.2748906317360928 1.770749713716887 0.0
0.5785110002099415 1.757022387413085 0.0
5.550004842562332 0.3852675728674634 0.0
4.948161884155141 0.3480305424737933 0.0
1.741244734175577 1.381979611033466 0.0
5.312408927381063 0.3621256994047111 0.0
0.2492139438157334 1.453132031680879 0.0
7.597720022451821 0.2370268512906596 0.0
9.471021754366422 0.2472916581956264 0.0
7.714083843672875 0.600212897672991 0.0
4.520815862079482 0.3946753115680038 0.0
2.47356661122767 0.8007389356831706 0.0
7.325494311403363 0.528948935030723 0.0
7.147005275585743 0.2709670165999667 0.0
3.758046446289313 0.5474783841545341 0.0
3.893717059615281 0.1664960777568404 0.0
2.152835534199412 0.8614028741175742 0.0
8.995993312441625 0.1933410497113667 0.0
1.077676137392001 1.368204555688504 0.0
0.2429906229817933 0.9816066505657851 0.0
0.6261765586985547 1.180540007244081 0.0
9.81151801018651 0.816223424030724 0.0
0.6725442903064565 0.8425384371773644 0.0
1.74584086891446 0.2617492458514414 0.0
0.7667820686164357 1.440842670056678 0.0
8.539133693395232 0.1910926418035274 0.0
5.129145653242096 0.3632579123815574 0.0
6.816538849831732 0.2013284992826486 0.0
2.108503954619862 0.5359795950847274 0.0
6.933669557130528 0.4980836483776163 0.0
3.071406705674529 0.4919421055852253 0.0
2.001240035874449 0.2292738462614773 0.0
4.782473531509697 0.4061213127162872 0.0
0.5734126310178208 1.536352720889636 0.0
9.796714529589472 0.4898048068674991 0.0
5.678359041645315 0.373719883316694 0.0
5.427661572827738 0.3646059266294788 0.0
2.075214597532947 1.226969224366912 0.0
3.251521478555126 0.2637671977660283 0.0
2.722180837291864 0.9710783334409533 0.0
9.333262390342384 0.8479609887828539 0.0
1.367251332770493 0.2041553944563636 0.0
1.870721433742522 0.7905989208842599 0.0
1.387906762913351 1.555741687747287 0.0
9.559918612869 0.8444052974080497 0.0
9.286795039366257 0.4698254290795815 0.0
1.507117480770146 1.225129516597721 0.0
[...]
POINT_DATA 600

VECTORS Velocity float
0.0000000000000000 0.0000000000000000 0.0
0.0000000000000000 0.0000000000000000 0.0
0.0000000000000000 0.0000000000000000 0.0
0.0000000000000000 0.0000000000000000 0.0
0.0000000000000000 0.0000000000000000 0.0
0.0000000000000000 0.0000000000000000 0.0
0.0000000000000000 0.0000000000000000 0.0
0.0000000000000000 0.0000000000000000 0.0
0.0000000000000000 0.0000000000000000 0.0
0.0000000000000000 0.0000000000000000 0.0
0.0000000000000000 0.0000000000000000 0.0
0.0000000000000000 0.0000000000000000 0.0
0.0000000000000000 0.0000000000000000 0.0
0.0000000000000000 0.0000000000000000 0.0
0.0000000000000000 0.0000000000000000 0.0
0.0000000000000000 0.0000000000000000 0.0
0.0000000000000000 0.0000000000000000 0.0
0.0000000000000000 0.0000000000000000 0.0
0.0000000000000000 0.0000000000000000 0.0
0.0000000000000000 0.0000000000000000 0.0
0.0000000000000000 0.0000000000000000 0.0
0.0000000000000000 0.0000000000000000 0.0
0.0000000000000000 0.0000000000000000 0.0
0.0000000000000000 0.0000000000000000 0.0
0.0000000000000000 0.0000000000000000 0.0
0.0000000000000000 0.0000000000000000 0.0
0.0000000000000000 0.0000000000000000 0.0
0.0000000000000000 0.0000000000000000 0.0
0.0000000000000000 0.0000000000000000 0.0
0.0000000000000000 0.0000000000000000 0.0
0.0000000000000000 0.0000000000000000 0.0
0.0000000000000000 0.0000000000000000 0.0
0.0000000000000000 0.0000000000000000 0.0
0.0000000000000000 0.0000000000000000 0.0
0.0000000000000000 0.0000000000000000 0.0
0.0000000000000000 0.0000000000000000 0.0
0.0000000000000000 0.0000000000000000 0.0
0.0000000000000000 0.0000000000000000 0.0
0.0000000000000000 0.0000000000000000 0.0
0.0000000000000000 0.0000000000000000 0.0
0.0000000000000000 0.0000000000000000 0.0
0.0000000000000000 0.0000000000000000 0.0
0.9934463067150620 -0.0069991298784709 0.0
0.0000000000000000 0.0000000000000000 0.0
0.0000000000000000 0.0000000000000000 0.0
0.0000000000000000 0.0000000000000000 0.0
0.0000000000000000 0.0000000000000000 0.0
0.0000000000000000 0.0000000000000000 0.0
0.0000000000000000 0.0000000000000000 0.0
0.0000000000000000 0.0000000000000000 0.0
0.0000000000000000 0.0000000000000000 0.0
0.0000000000000000 0.0000000000000000 0.0
0.0000000000000000 0.0000000000000000 0.0
0.0000000000000000 0.0000000000000000 0.0
0.0000000000000000 0.0000000000000000 0.0
0.0000000000000000 0.0000000000000000 0.0
0.0000000000000000 0.0000000000000000 0.0
0.0000000000000000 0.0000000000000000 0.0
0.0000000000000000 0.0000000000000000 0.0
0.0000000000000000 0.0000000000000000 0.0
0.0000000000000000 0.0000000000000000 0.0
0.0000000000000000 0.0000000000000000 0.0
0.0000000000000000 0.0000000000000000 0.0
0.0000000000000000 0.0000000000000000 0.0
0.0000000000000000 0.0000000000000000 0.0
0.0000000000000000 0.0000000000000000 0.0
0.0000000000000000 0.0000000000000000 0.0
0.0000000000000000 0.0000000000000000 0.0
0.0000000000000000 0.0000000000000000 0.0
0.0000000000000000 0.0000000000000000 0.0
0.0000000000000000 0.0000000000000000 0.0
0.0000000000000000 0.0000000000000000 0.0
0.0000000000000000 0.0000000000000000 0.0
0.0000000000000000 0.0000000000000000 0.0
0.0000000000000000 0.0000000000000000 0.0
0.0000000000000000 0.0000000000000000 0.0
0.0000000000000000 0.0000000000000000 0.0
0.0000000000000000 0.0000000000000000 0.0
0.0000000000000000 0.0000000000000000 0.0
0.0000000000000000 0.0000000000000000 0.0
0.0000000000000000 0.0000000000000000 0.0
0.0000000000000000 0.0000000000000000 0.0
0.0000000000000000 0.0000000000000000 0.0
0.0000000000000000 0.0000000000000000 0.0
0.0000000000000000 0.0000000000000000 0.0
0.0000000000000000 0.0000000000000000 0.0
0.0000000000000000 0.0000000000000000 0.0
0.0000000000000000 0.0000000000000000 0.0
0.0000000000000000 0.0000000000000000 0.0
1.0000000000000000 0.0000000000000000 0.0
1.0000000000000000 0.0000000000000000 0.0
1.0000000000000000 0.0000000000000000 0.0
1.0000000000000000 0.0000000000000000 0.0
1.0000000000000000 0.0000000000000000 0.0
1.0000000000000000 0.0000000000000000 0.0
1.0000000000000000 0.0000000000000000 0.0
1.0000000000000000 0.0000000000000000 0.0
1.0000000000000000 0.0000000000000000 0.0
0.0000000000000000 0.0000000000000000 0.0
0.0000000000000000 0.0000000000000000 0.0
0.0000000000000000 0.0000000000000000 0.0
0.0000000000000000 0.0000000000000000 0.0
0.0000000000000000 0.0000000000000000 0.0
0.0000000000000000 0.0000000000000000 0.0
0.0000000000000000 0.0000000000000000 0.0
0.0000000000000000 0.0000000000000000 0.0
0.0000000000000000 0.0000000000000000 0.0
0.0000000000000000 0.0000000000000000 0.0
0.0000000000000000 0.0000000000000000 0.0
0.0000000000000000 0.0000000000000000 0.0
0.0000000000000000 0.0000000000000000 0.0
0.0000000000000000 0.0000000000000000 0.0
0.0000000000000000 0.0000000000000000 0.0
0.0000000000000000 0.0000000000000000 0.0
0.0000000000000000 0.0000000000000000 0.0
0.0000000000000000 0.0000000000000000 0.0
0.0000000000000000 0.0000000000000000 0.0
0.0000000000000000 0.0000000000000000 0.0
0.0000000000000000 0.0000000000000000 0.0
0.0000000000000000 0.0000000000000000 0.0
0.0000000000000000 0.0000000000000000 0.0
0.0000000000000000 0.0000000000000000 0.0
0.0000000000000000 0.0000000000000000 0.0
0.0000000000000000 0.0000000000000000 0.0
0.0000000000000000 0.0000000000000000 0.0
0.0000000000000000 0.0000000000000000 0.0
0.0000000000000000 0.0000000000000000 0.0
0.0000000000000000 0.0000000000000000 0.0
0.0000000000000000 0.0000000000000000 0.0
0.0000000000000000 0.0000000000000000 0.0
0.0000000000000000 0.0000000000000000 0.0
0.0000000000000000 0.0000000000000000 0.0
0.0000000000000000 0.0000000000000000 0.0
0.0000000000000000 0.0000000000000000 0.0
0.0000000000000000 0.0000000000000000 0.0
0.0000000000000000 0.0000000000000000 0.0
0.0000000000000000 0.0000000000000000 0.0
0.0000000000000000 0.0000000000000000 0.0
0.0000000000000000 0.0000000000000000 0.0
0.0000000000000000 0.0000000000000000 0.0
0.0000000000000000 0.0000000000000000 0.0
0.0000000000000000 0.0000000000000000 0.0
0.0000000000000000 0.0000000000000000 0.0
0.0000000000000000 0.0000000000000000 0.0
0.0000000000000000 0.0000000000000000 0.0
0.0000000000000000 0.0000000000000000 0.0
0.0000000000000000 0.0000000000000000 0.0
1.0012917793333203 -0.0320617749682582 0.0
1.0015345042555035 -0.0429648140076146 0.0
0.9989786287198571 -0.0419311052193147 0.0
1.0017447182246424 -0.0280164887528640 0.0
0.9978243956993171 0.0106880905625082 0.0
1.0011298857205482 -0.0097532757254471 0.0
0.9944728195691196 -0.0171683716903770 0.0
1.0267655049339810 0.0246836108724185 0.0
1.0376297044877303 -0.0088956740833382 0.0
0.9971875698181174 -0.0092395953292555 0.0
1.0016223353857081 -0.0086997310097733 0.0
0.9965837620771815 0.0001315973711603 0.0
1.0023201663909100 0.0010163285890439 0.0
0.9963448886469951 -0.0091312780191263 0.0
0.9656711069944508 0.0051427818022989 0.0
1.0342558475564525 -0.0231438542718040 0.0
0.9753885042925263 0.0306145558769037 0.0
1.0068655135589439 0.0074780545210854 0.0
1.0005373255033332 0.0061361037479157 0.0
1.0445762528805111 0.0004895924683787 0.0
1.0435846897952539 -0.0216932386167657 0.0
0.9568795180642008 -0.0063753842939976 0.0
0.9955147417604817 -0.0075528946248680 0.0
1.0028669701278770 0.0009096609215108 0.0
1.0067147051649616 0.0368474562936914 0.0
1.0300013572268178 0.0285413338197652 0.0
0.9991118437582701 0.0001172858015458 0.0
0.9985895607779152 0.0021311289068901 0.0
1.0003934233549590 0.0007466505286868 0.0
1.0004726702787277 0.0001348110716564 0.0
1.0299087026120266 -0.0204685387699121 0.0
1.0042022729312121 -0.0003935793819955 0.0
0.9999015036713301 0.0036898336016398 0.0
1.0127493391031976 -0.0139502454011998 0.0
0.9991693926677911 0.0001835251298695 0.0
1.0257741103089888 -0.0014485729158026 0.0
1.0362394594399726 -0.0291711211343578 0.0
1.0209862034671850 0.0063331250389634 0.0
1.0001091472703121 -0.0017551798697203 0.0
0.9992304530447100 -0.0058705236449508 0.0
1.0014381665406185 0.0003802113122224 0.0
0.9680563906282665 -0.0119226399496389 0.0
1.0012571917659969 -0.0007435974048175 0.0
0.9526512547138871 0.0059646733864480 0.0
1.0542106032436562 -0.0005140641985745 0.0
1.0242230577100717 -0.0178990355802672 0.0
1.0646761790933499 -0.0184604949844245 0.0
0.9461340524261460 -0.0028469810697500 0.0
1.0613378891724925 -0.0220605560325277 0.0
1.0215195387834932 0.0150194826665945 0.0
1.0151939862299018 -0.0022312168205883 0.0
1.0232257798453368 -0.0050805985261125 0.0
0.9528101030600720 -0.0060299678761235 0.0
0.9969467704025355 -0.0140430344807839 0.0
1.0250588553254092 0.0028091991100599 0.0
1.0312670659711380 0.0031234655809534 0.0
0.9813337189709707 -0.0037250867507101 0.0
1.0056168750463974 0.0684542758206440 0.0
1.0572095032600326 -0.0306658949934568 0.0
0.9804813989517982 0.0016088646142082 0.0
1.0171986289864030 -0.0148673280547484 0.0
0.9740582825994553 -0.0052251258161872 0.0
0.9857235708924871 -0.0128528977658542 0.0
0.9898176689054056 0.0176492023770695 0.0
0.9791308909092910 0.0471528603843360 0.0
1.0215305387514606 -0.0088680614647441 0.0
0.9828708234659633 0.0125171763097904 0.0
1.0179299187262005 0.0071724232421901 0.0
0.9760789401651505 -0.0003095166598893 0.0
1.0086788962576396 -0.0059310413613510 0.0
1.0118781622433253 0.0028060052102623 0.0
1.0157181288879709 0.0051108969656352 0.0
1.0587165096509501 -0.0297774996421418 0.0
1.0395952092493495 -0.0204860389268486 0.0
1.0115036139592248 -0.0083451430864920 0.0
0.9815439986235992 0.0064851033195357 0.0
1.0153634941732210 0.0038039313346100 0.0
0.9813518844920879 -0.0024882348139044 0.0
0.9715523957002673 -0.0088875240263237 0.0
1.0172322891593006 0.0002743519481042 0.0
1.0129772698610144 0.0022093658293757 0.0
0.9836208513585081 0.0075069464305366 0.0
1.0253893868729196 -0.0172232893820595 0.0
0.9678822521485958 -0.0072904513507217 0.0
1.0473472005105511 -0.0253272518341895 0.0
0.9991686371949046 -0.0204931885284707 0.0
1.0300315854963078 -0.0130509405175036 0.0
1.0121181488680777 0.0049632203109766 0.0
0.9372736705810737 0.0070293310408280 0.0
0.9518108059747572 0.0109853393018198 0.0
1.0091270627428361 0.0011627489482023 0.0
1.0286364908769794 0.0051026030138308 0.0
1.0614124470046531 -0.0108394310917636 0.0
0.9733487263941452 -0.0063301662691131 0.0
1.0270248807943694 0.0081359806684958 0.0
1.0222091144156094 0.0495586065407331 0.0
1.0458352488501705 0.0033372771313454 0.0
1.0157147182849857 0.0019840698854185 0.0
1.0134475520238739 -0.0007594704984044 0.0
1.0702167191391954 -0.0298882130077099 0.0
1.0139709784507140 0.0007885125660513 0.0
1.0090770464187999 0.0350523377252298 0.0
0.9850107047426299 0.0053104670512934 0.0
0.9775918692307205 -0.0073449214364839 0.0
1.0187500234598035 0.0050505037551488 0.0
1.0154892735754586 -0.0040353346879511 0.0
1.0241599196047952 -0.0242533567888252 0.0
1.0163360054259900 0.0012598348621504 0.0
0.9916728867164093 0.0005863270805862 0.0
1.0208549082666831 -0.0123179552441523 0.0
0.9729790303540751 -0.0044624955889535 0.0
1.0201612672379143 -0.0206312262551145 0.0
0.9630614369076211 0.0011165827728844 0.0
1.0432266886872557 -0.0047311029476399 0.0
1.0384176322001035 0.0568528237713956 0.0
1.0150015832921890 0.0293246266138928 0.0
1.0179801079602804 -0.0161551874629094 0.0
0.9980941170947077 0.0225342860967818 0.0
0.9380348471340342 -0.0061084909926086 0.0
1.0366401152204026 0.0108439630789060 0.0
0.9640802529629345 -0.0003415049687163 0.0
1.0146620948818561 0.0000815692961068 0.0
0.9826272425816280 0.0044982885458907 0.0
0.9755423627926887 -0.0123857437668749 0.0
1.0217892331914784 0.0048607411642889 0.0
0.9989660271988927 -0.0112050201968872 0.0
0.9364081905989482 -0.0008237521587294 0.0
1.0217921450499570 -0.0031767752652389 0.0
1.0369971401811273 0.0192707548107270 0.0
1.0001635392926722 -0.0265433920376163 0.0
1.0144102167960061 0.0029276256843290 0.0
1.0131271352621585 0.0013483490491562 0.0
1.0637753892722159 -0.0328136932688370 0.0
0.9717888703952291 -0.0059746312400695 0.0
1.0500892112404152 -0.0268938830020341 0.0
1.0402840443042947 0.0009199785887588 0.0
0.9280730644793826 0.0002294939555120 0.0
1.0048765324654081 -0.0120143836513516 0.0
1.0768818008863916 -0.0250081897592917 0.0
1.0325107348733400 -0.0050036652059775 0.0
0.9986118707769082 -0.0045082642572321 0.0
1.0433009674541867 -0.0164259768476366 0.0
1.0355071418830486 0.0013736991423778 0.0
1.0029732052980642 0.0018760619748418 0.0
1.0152853197000438 -0.0037709261269101 0.0
1.0136846546019418 0.0030449122501256 0.0
1.0370127845577441 0.0053983113389775 0.0
1.0510727821263977 0.0394566916699012 0.0
0.9923832275208063 0.0356452384048724 0.0
0.9965985574733586 0.0579004154475247 0.0
1.0210354146267462 0.0042388209310788 0.0
1.0202545257583759 -0.0067813650488533 0.0
0.9832808659969922 -0.0009782629213612 0.0
1.0632608765123635 -0.0343879017672517 0.0
0.9849045032776658 0.0006830452237889 0.0
1.0026410637707999 0.0053229618346483 0.0
0.9806928931667932 0.0001603391413469 0.0
0.9654227273576443 0.0056491991693049 0.0
1.0022725195478397 -0.0062370647691269 0.0
0.9493382765812726 -0.0046168677727591 0.0
0.9827809794081397 0.0052873018847089 0.0
0.9979129517759980 0.0029767768295563 0.0
1.0242840392314754 0.0328643955271896 0.0
0.9745325970719027 -0.0113758367292975 0.0
1.0746808249598332 -0.0210908495253255 0.0
1.0684980589219502 -0.0120298501692355 0.0
0.9819534796875395 0.0007498172818910 0.0
1.0183428070568945 -0.0187187126898825 0.0
1.0175863300998973 -0.0141763711144896 0.0
1.0785955346179132 -0.0308450974938882 0.0
1.0372262221950319 0.0148576429094383 0.0
1.0254245416042318 -0.0060298618049262 0.0
0.9879182380194322 -0.0156002054656566 0.0
1.0369355834486913 0.0074894424553964 0.0
1.0062711146225967 0.0189874972112869 0.0
0.9829806986821662 -0.0081381880099526 0.0
1.0249408406331904 0.0021923821697524 0.0
1.0348391320775017 -0.0183795781475025 0.0
1.0156317898459009 0.0002904277808045 0.0
1.0394064252840234 0.0068627687724961 0.0
0.9948757836746722 -0.0117500245398982 0.0
0.9819781936437832 0.0003127245890374 0.0
0.9711957505677710 -0.0003502304852215 0.0
1.0331283101135855 0.0072700632654119 0.0
0.9817110979709398 0.0032548180671546 0.0
0.9807997610922554 -0.0007568495291445 0.0
1.0766601058255902 -0.0349225642557822 0.0
1.0286914990817788 -0.0039642736836837 0.0
0.9616167386279967 -0.0016999374302304 0.0
1.0462670818937232 -0.0207972008964285 0.0
0.9634788994850075 0.0155745479758644 0.0
1.0557786927841557 -0.0161956698758423 0.0
0.9627084747764494 0.0031243510304622 0.0
1.0151421012792936 -0.0013227881430975 0.0
0.9825753750611894 0.0013022383610360 0.0
1.0050368164650259 -0.0109245712805104 0.0
0.9324237326048056 0.0012299652065048 0.0
1.0183731760760162 -0.0234508428145248 0.0
1.0135857463963982 -0.0054466994183378 0.0
1.0584878520984506 -0.0031192800859397 0.0
0.9827229006459646 -0.0000941390411650 0.0
1.0032059003914984 0.0086912276793314 0.0
1.0402079936402364 -0.0213245405040430 0.0
1.0017510270663190 0.0044266459757592 0.0
1.0576572908786004 -0.0112421009338959 0.0
1.0307994210460072 0.0084329719369152 0.0
0.9481597645950302 -0.0061472377199154 0.0
1.0247989398647401 0.0003211177879425 0.0
1.0252154468199952 0.0004523107029868 0.0
0.9968080118077665 -0.0000496262241375 0.0
1.0298290561972765 -0.0054597930082947 0.0
1.0277767420858825 0.0048442319698176 0.0
1.0296946422539828 -0.0099118883221547 0.0
1.0208109941589913 0.0058698745813032 0.0
0.9870228315707397 0.0536283519772731 0.0
1.0285735608157809 0.0050700512609848 0.0
1.0405710238847592 -0.0000963374234653 0.0
1.0593576473113928 -0.0237471348100156 0.0
0.9516946612535327 0.0130342102938387 0.0
1.0257249669005564 -0.0027205010845743 0.0
1.0410019699051949 -0.0271688847964430 0.0
1.0349704998951117 0.0060805300467093 0.0
0.9777438978583256 0.0001911910512685 0.0
1.0517269581552944 0.0003990879129468 0.0
1.0287633200600803 0.0041367019176075 0.0
1.0314751920460639 0.0048682002055538 0.0
1.0182609595200751 0.0043219049242213 0.0
1.0385103533338891 0.0038338963289077 0.0
0.9901106740806286 0.0474466928141093 0.0
1.0302458736432392 -0.0072028934328377 0.0
1.0406420532883331 -0.0224265723386438 0.0
0.9519496605266284 -0.0037106708709527 0.0
0.9255207730533479 -0.0005239438539469 0.0
1.0142170292416619 0.0426292908117844 0.0
1.0414527967638669 -0.0176536589773732 0.0
1.0267854205568097 0.0034764799006169 0.0
1.0292712337217960 -0.0110934788778378 0.0
1.0108118167585269 0.0106607276419350 0.0
1.0470788770945703 0.0042306596191104 0.0
1.0073446619174911 -0.0305048328594393 0.0
0.9949332069443484 -0.0013471703283733 0.0
0.9785004227956072 0.0001417201617137 0.0
1.0253185953331683 -0.0029993983005428 0.0
1.0271550221001680 0.0163180595364310 0.0
0.9560365517941433 -0.0061667554712151 0.0
1.0162529824817783 -0.0167536034204237 0.0
1.0807815006524413 -0.0303590270250514 0.0
1.0111101958819440 0.0007801933936405 0.0
0.9888657712639611 0.0080663658135314 0.0
0.9596207711224198 0.0006205990072716 0.0
0.9977369761905143 -0.0169092925302088 0.0
1.0143876762781787 -0.0161096313594012 0.0
0.9636533433956040 -0.0047174958026670 0.0
1.0016036807824911 0.0506805306153612 0.0
1.0304121783498303 0.0057963487796653 0.0
1.0244872231118782 0.0044176867990857 0.0
0.9778698237026464 -0.0010580817739573 0.0
1.0799872998550077 -0.0260976150567688 0.0
0.9681038280639537 0.0235139173260969 0.0
1.0034810027762695 0.0016165000039483 0.0
1.0517188963337356 -0.0278771826657317 0.0
1.0004784839243799 0.0036043608301219 0.0
1.0103298888832268 -0.0027530692072803 0.0
1.0609587556552953 -0.0317280664164189 0.0
1.0201350237307854 0.0020246425007999 0.0
1.0197013208352472 -0.0122164870885601 0.0
0.9787245308785568 0.0198908771393833 0.0
0.9854750439553273 -0.0068066828322876 0.0
0.9838877086279640 0.0000779351170838 0.0
0.9754257445887642 -0.0004118640757515 0.0
0.9889132887009219 -0.0112039937273131 0.0
1.0424950736732315 0.0022819987023267 0.0
1.0744915624951270 -0.0362889193433971 0.0
0.9302190506162229 -0.0024434838987746 0.0
1.0485473703632009 -0.0290505490043034 0.0
0.9843639784581207 -0.0144936769069279 0.0
1.0173646945159351 -0.0094748421019398 0.0
0.9770725315649444 -0.0079641048468001 0.0
0.9520784591959276 -0.0054493334378640 0.0
0.9604075378900778 0.0017797712272351 0.0
0.9801778081633672 -0.0014263171545914 0.0
1.0100624572679064 0.0504676967429187 0.0
0.9812691032024951 0.0446257050607639 0.0
0.9595423259668353 -0.0004109293305202 0.0
0.9576081134257167 -0.0041521586756071 0.0
0.9764129578554717 0.0013168082613556 0.0
1.0037592629216223 0.0010383889616079 0.0
1.0616338708211053 -0.0295601816048391 0.0
0.9724704453029075 -0.0077444458464814 0.0
1.0128523883508793 -0.0140413610209956 0.0
0.9809386533847358 0.0010166539620553 0.0
1.0078187033787545 -0.0170667112382795 0.0
0.9805014515926734 0.0004182626451479 0.0
1.0274712751575570 0.0030976871429205 0.0
0.9838371034525624 -0.0080680162917975 0.0
0.9853448880088598 -0.0049994888978777 0.0
1.0015360396724255 0.0613591261248552 0.0
0.9872514261078876 0.0043967570706129 0.0
1.0319858065902316 -0.0023626485070512 0.0
0.9821400299261368 0.0218110535063905 0.0
0.9465204195910848 0.0023381851271224 0.0
1.0290479423315120 0.0020259659449275 0.0
1.0304918089100226 0.0022623193109630 0.0
1.0379315116840624 -0.0226596077359403 0.0
0.9730200735229212 -0.0081503841396153 0.0
1.0128861037575687 0.0395549537295942 0.0
0.9326459335620141 0.0064821703565633 0.0
1.0167833901542154 -0.0133452951516762 0.0
1.0519735877185628 -0.0000196129915568 0.0
1.0431014912948111 -0.0183202092834835 0.0
1.0577451499733930 -0.0275937380204470 0.0
0.9742260132874209 -0.0037954056591784 0.0
0.9912967226199741 -0.0299656100769996 0.0
1.0280930171405314 -0.0097020890779059 0.0
1.0043305708946113 0.0002911016342211 0.0
1.0302430235114970 0.0020606346830457 0.0
0.9967228473404560 -0.0066027582841691 0.0
1.0288462034660368 0.0029472264795941 0.0
1.0310798918129735 -0.0173541946218178 0.0
1.0270794903326685 0.0020671970181228 0.0
1.0734072659039893 -0.0333750468787538 0.0
0.9787016392487491 -0.0039255948229694 0.0
0.9892030735265959 -0.0029288907073297 0.0
0.9931623938825740 -0.0092151347190466 0.0