# vtk DataFile Version 3.0
LucasCarvalhoTCC Results
ASCII

DATASET POLYDATA
FIELD FieldData 1
TIME 1 1 double
0.4

POINTS 600 float
0.0 2.0 0.0
0.25 1.989125 0.0
0.5 1.958 0.0
0.75 1.908875 0.0
1.0 1.844 0.0
1.25 1.765625 0.0
1.5 1.676 0.0
1.75 1.577375 0.0
2.0 1.472 0.0
2.25 1.362125 0.0
2.5 1.25 0.0
2.75 1.137875 0.0
3.0 1.028 0.0
3.25 0.922625 0.0
3.5 0.8240000000000001 0.0
3.75 0.734375 0.0
4.0 0.6560000000000001 0.0
4.25 0.5911249999999999 0.0
4.5 0.542 0.0
4.75 0.510875 0.0
5.0 0.5 0.0
5.25 0.5036250000000004 0.0
5.5 0.5140000000000002 0.0
5.75 0.5303750000000003 0.0
6.0 0.5519999999999996 0.0
6.25 0.578125 0.0
6.5 0.6080000000000005 0.0
6.75 0.6408749999999999 0.0
7.0 0.6760000000000002 0.0
7.25 0.7126249999999992 0.0
7.5 0.75 0.0
7.75 0.7873750000000004 0.0
8.0 0.8239999999999994 0.0
8.25 0.8591250000000001 0.0
8.5 0.8919999999999999 0.0
8.75 0.921875 0.0
9.0 0.9479999999999991 0.0
9.25 0.9696250000000011 0.0
9.5 0.9859999999999984 0.0
9.75 0.9963750000000013 0.0
10.0 1.0 0.0
0.0 0.0 0.0
10.0 0.0 0.0
0.124999999999674 1.994562500000014 0.0
0.3749999999999947 1.973562500000001 0.0
0.6249999999999918 1.933437500000002 0.0
0.874999999999979 1.876437500000006 0.0
1.124999999999963 1.804812500000012 0.0
1.374999999999944 1.72081250000002 0.0
1.624999999999985 1.626687500000006 0.0
1.874999999999953 1.52468750000002 0.0
2.124999999999936 1.417062500000028 0.0
2.374999999999952 1.306062500000022 0.0
2.624999999999919 1.193937500000036 0.0
2.87499999999992 1.082937500000035 0.0
3.124999999999946 0.9753125000000229 0.0
3.374999999999948 0.8733125000000204 0.0
3.624999999999972 0.77918750000001 0.0
3.874999999999963 0.6951875000000118 0.0
4.124999999999968 0.6235625000000082 0.0
4.394409538298571 0.5627485257243309 0.0
4.583333333333322 0.5316250000000015 0.0
4.666666666666668 0.5212499999999999 0.0
4.833333333333334 0.50725 0.0
4.916666666666667 0.503625 0.0
5.083333333333334 0.5012083333333335 0.0
5.166666666666666 0.502416666666667 0.0
5.333333333333334 0.5070833333333337 0.0
5.416666666666667 0.510541666666667 0.0
5.583333333333334 0.5194583333333336 0.0
5.666666666666666 0.5249166666666669 0.0
5.833333333333338 0.5375833333333339 0.0
5.916666666666661 0.544791666666666 0.0
6.105781577147724 0.5630541748119369 0.0
6.375 0.5930625000000003 0.0
6.624999999999988 0.6244374999999988 0.0
6.874999999999994 0.6584374999999991 0.0
7.125 0.6943124999999997 0.0
7.375 0.7313124999999996 0.0
7.624999999999994 0.7686874999999992 0.0
7.875 0.8056874999999999 0.0
8.125 0.8415624999999998 0.0
8.374999999999991 0.8755624999999989 0.0
8.624999999999995 0.9069374999999993 0.0
8.874999999999995 0.9349374999999991 0.0
9.125 0.9588125000000001 0.0
9.375 0.9778124999999998 0.0
9.625 0.9911874999999999 0.0
9.875 0.9981875000000007 0.0
0.0 1.799999999999167 0.0
0.0 1.6 0.0
0.0 1.400000000001387 0.0
0.0 1.200000000002774 0.0
0.0 1.000000000004117 0.0
0.0 0.8000000000033287 0.0
0.0 0.6000000000024965 0.0
0.0 0.4000000000016644 0.0
0.0 0.200000000000832 0.0
0.199999999999856 0.0 0.0
0.3999999999996677 0.0 0.0
0.5999999999994683 0.0 0.0
0.7999999999993286 0.0 0.0
0.9999999999991888 0.0 0.0
1.199999999999033 0.0 0.0
1.399999999998576 0.0 0.0
1.599999999997992 0.0 0.0
1.799999999997408 0.0 0.0
1.999999999996825 0.0 0.0
2.199999999996241 0.0 0.0
2.399999999995657 0.0 0.0
2.599999999995073 0.0 0.0
2.79999999999449 0.0 0.0
2.999999999993906 0.0 0.0
3.199999999993322 0.0 0.0
3.399999999992738 0.0 0.0
3.599999999992154 0.0 0.0
3.799999999991571 0.0 0.0
3.999999999991022 0.0 0.0
4.199999999991187 0.0 0.0
4.399999999991491 0.0 0.0
4.599999999991795 0.0 0.0
4.799999999992099 0.0 0.0
4.999999999992403 0.0 0.0
5.199999999992706 0.0 0.0
5.39999999999301 0.0 0.0
5.599999999993313 0.0 0.0
5.799999999993618 0.0 0.0
5.999999999993922 0.0 0.0
6.199999999994227 0.0 0.0
6.39999999999453 0.0 0.0
6.599999999994833 0.0 0.0
6.799999999995138 0.0 0.0
6.999999999995442 0.0 0.0
7.199999999995747 0.0 0.0
7.39999999999605 0.0 0.0
7.599999999996353 0.0 0.0
7.799999999996658 0.0 0.0
7.999999999996962 0.0 0.0
8.199999999997265 0.0 0.0
8.399999999997569 0.0 0.0
8.599999999997873 0.0 0.0
8.799999999998176 0.0 0.0
8.99999999999848 0.0 0.0
9.199999999998786 0.0 0.0
9.399999999999089 0.0 0.0
9.599999999999392 0.0 0.0
9.799999999999697 0.0 0.0
10.0 0.1999999999995579 0.0
10.0 0.3999999999989749 0.0
10.0 0.5999999999989468 0.0
10.0 0.7999999999994734 0.0
0.913963423524136 0.9126937851647636 0.0
1.629657910441747 0.8286436141773268 0.0
2.300136613917738 0.6369890708869279 0.0
0.5989085226155619 1.38125543468559 0.0
1.274155622640533 1.242773398230304 0.0
2.860215383945273 0.5217401976756945 0.0
9.469653920408135 0.4910067017840992 0.0
8.984679546317787 0.4696119782494839 0.0
8.499397693277212 0.4463630640980716 0.0
3.270918412356206 0.4522692359356972 0.0
1.223039611612243 0.5146439900227544 0.0
2.024812732135938 1.00818256045515 0.0
0.5365376864627701 0.5434316309416508 0.0
8.114834335444021 0.4602948767329583 0.0
7.742261962994204 0.4117304941858466 0.0
0.9443382341364558 1.456061359265878 0.0
1.665275621558886 1.201744468407863 0.0
1.89566112584099 0.4397284596316843 0.0
3.691409759982064 0.3560936332572802 0.0
7.368457390036411 0.3792926046732459 0.0
0.5071184951703254 0.9340893429149442 0.0
0.3822273842356539 1.647625881691675 0.0
5.916285335387544 0.2564903116750689 0.0
5.628860531758535 0.2582323053999509 0.0
5.380471017960128 0.2502349014663197 0.0
5.139244585769944 0.2549145445969738 0.0
2.686085237972266 0.8031095648160084 0.0
4.507599040026292 0.263176944655695 0.0
6.983755234374982 0.3380000000001097 0.0
9.720925955181613 0.6635813325201156 0.0
1.288006195687152 0.8759679848503046 0.0
9.20556379558699 0.6923669083350594 0.0
2.319913492084225 0.9512500928262699 0.0
8.73203612228155 0.6151508464420534 0.0
4.868679481352366 0.2526598053940744 0.0
4.10358044398202 0.3012437332986487 0.0
6.602422946953217 0.3126221952225479 0.0
2.534693527909069 0.3583319619586092 0.0
6.193332317503376 0.2894654215336858 0.0
0.8804088217382579 0.3735513844182569 0.0
0.7663303172393539 1.679065267574722 0.0
3.081211528283084 0.6968015573146217 0.0
1.241762689885858 1.521465072418641 0.0
1.573472750763779 0.3374689934575129 0.0
1.475107933015155 1.403918544935278 0.0
0.8212739503602162 1.195790902469637 0.0
4.681049549092561 0.3558177014380842 0.0
9.439519900118443 0.7366884444350511 0.0
2.201393787062887 0.3261463175998884 0.0
2.015369189818184 0.7109460688851087 0.0
8.32727069655695 0.6360373328685593 0.0
8.961488632119996 0.7119124617705204 0.0
9.22773266034565 0.3109430611770705 0.0
0.3000513553073295 1.178778127105867 0.0
1.91985473842554 1.233084801189704 0.0
8.749827252515535 0.3049638092131281 0.0
3.50551132590258 0.5576614504134195 0.0
3.040500962406976 0.290446660105673 0.0
9.72097519930939 0.3037986529514364 0.0
0.3073166349239687 0.3249300260882615 0.0
0.2948185331392187 0.7229775107826154 0.0
1.46029425821417 1.06552904833304 0.0
0.8085718129253527 0.673531272847494 0.0
7.913326191751847 0.5738936378911789 0.0
8.295349499871781 0.2556682497524391 0.0
4.31359646688283 0.3665214152100782 0.0
7.542842082022704 0.5249918217576657 0.0
1.058357552227335 1.116692590939024 0.0
2.214297272750292 1.159898327391242 0.0
2.901187336648686 0.8282146771898153 0.0
3.933498145061447 0.4325241689837319 0.0
7.956006969037984 0.2667411694088205 0.0
7.172393179434975 0.4835114022190097 0.0
1.440243631802057 0.6689433452646625 0.0
3.458541882144431 0.2581755850286561 0.0
5.791617360065465 0.3978542524532168 0.0
5.981529865241493 0.3900667299390458 0.0
1.083462543944253 0.7203994120564634 0.0
1.78518471978951 1.008552691762234 0.0
2.77360122246243 0.2689852172070111 0.0
2.565134389978369 0.9928826788184764 0.0
2.543046005790158 0.6034091352176242 0.0
3.293038780485421 0.6769811703257343 0.0
6.790787388653942 0.4353933509634578 0.0
1.140204059461831 0.2538227257007896 0.0
0.6242104065654487 0.2738473600765566 0.0
6.393430278703709 0.3766405270445946 0.0
8.533059390324546 0.6950580701614406 0.0
0.9961263693263854 1.612128843772703 0.0
1.697598586607002 0.5781950992180334 0.0
8.087930458724863 0.6517815437732153 0.0
0.2748906317360928 1.770749713716887 0.0
0.5785110002099415 1.757022387413085 0.0
5.550004842562332 0.3852675728674634 0.0
4.948161884155141 0.3480305424737933 0.0
1.741244734175577 1.381979611033466 0.0
5.312408927381063 0.3621256994047111 0.0
0.2492139438157334 1.453132031680879 0.0
7.597720022451821 0.2370268512906596 0.0
9.471021754366422 0.2472916581956264 0.0
7.714083843672875 0.600212897672991 0.0
4.520815862079482 0.3946753115680038 0.0
2.47356661122767 0.8007389356831706 0.0
7.325494311403363 0.528948935030723 0.0
7.147005275585743 0.2709670165999667 0.0
3.758046446289313 0.5474783841545341 0.0
3.893717059615281 0.1664960777568404 0.0
2.152835534199412 0.8614028741175742 0.0
8.995993312441625 0.1933410497113667 0.0
1.077676137392001 1.368204555688504 0.0
0.2429906229817933 0.9816066505657851 0.0
0.6261765586985547 1.180540007244081 0.0
9.81151801018651 0.816223424030724 0.0
0.6725442903064565 0.8425384371773644 0.0
1.74584086891446 0.2617492458514414 0.0
0.7667820686164357 1.440842670056678 0.0
8.539133693395232 0.1910926418035274 0.0
5.129145653242096 0.3632579123815574 0.0
6.816538849831732 0.2013284992826486 0.0
2.108503954619862 0.5359795950847274 0.0
6.933669557130528 0.4980836483776163 0.0
3.071406705674529 0.4919421055852253 0.0
2.001240035874449 0.2292738462614773 0.0
4.782473531509697 0.4061213127162872 0.0
0.5734126310178208 1.536352720889636 0.0
9.796714529589472 0.4898048068674991 0.0
5.678359041645315 0.373719883316694 0.0
5.427661572827738 0.3646059266294788 0.0
2.075214597532947 1.226969224366912 0.0
3.251521478555126 0.2637671977660283 0.0
2.722180837291864 0.9710783334409533 0.0
9.333262390342384 0.8479609887828539 0.0
1.367251332770493 0.2041553944563636 0.0
1.870721433742522 0.7905989208842599 0.0
1.387906762913351 1.555741687747287 0.0
9.559918612869 0.8444052974080497 0.0
9.286795039366257 0.4698254290795815 0.0
1.507117480770146 1.225129516597721 0.0
[...]
POINT_DATA 600

VECTORS Velocity float
0.0000000000000000 0.0000000000000000 0.0
0.0000000000000000 0.0000000000000000 0.0
0.0000000000000000 0.0000000000000000 0.0
0.0000000000000000 0.0000000000000000 0.0
0.0000000000000000 0.0000000000000000 0.0
0.0000000000000000 0.0000000000000000 0.0
0.0000000000000000 0.0000000000000000 0.0
0.0000000000000000 0.0000000000000000 0.0
0.0000000000000000 0.0000000000000000 0.0
0.0000000000000000 0.0000000000000000 0.0
0.0000000000000000 0.0000000000000000 0.0
0.0000000000000000 0.0000000000000000 0.0
0.0000000000000000 0.0000000000000000 0.0
0.0000000000000000 0.0000000000000000 0.0
0.0000000000000000 0.0000000000000000 0.0
0.0000000000000000 0.0000000000000000 0.0
0.0000000000000000 0.0000000000000000 0.0
0.0000000000000000 0.0000000000000000 0.0
0.0000000000000000 0.0000000000000000 0.0
0.0000000000000000 0.0000000000000000 0.0
0.0000000000000000 0.0000000000000000 0.0
0.0000000000000000 0.0000000000000000 0.0
0.0000000000000000 0.0000000000000000 0.0
0.0000000000000000 0.0000000000000000 0.0
0.0000000000000000 0.0000000000000000 0.0
0.0000000000000000 0.0000000000000000 0.0
0.0000000000000000 0.0000000000000000 0.0
0.0000000000000000 0.0000000000000000 0.0
0.0000000000000000 0.0000000000000000 0.0
0.0000000000000000 0.0000000000000000 0.0
0.0000000000000000 0.0000000000000000 0.0
0.0000000000000000 0.0000000000000000 0.0
0.0000000000000000 0.0000000000000000 0.0
0.0000000000000000 0.0000000000000000 0.0
0.0000000000000000 0.0000000000000000 0.0
0.0000000000000000 0.0000000000000000 0.0
0.0000000000000000 0.0000000000000000 0.0
0.0000000000000000 0.0000000000000000 0.0
0.0000000000000000 0.0000000000000000 0.0
0.0000000000000000 0.0000000000000000 0.0
0.0000000000000000 0.0000000000000000 0.0
0.0000000000000000 0.0000000000000000 0.0
0.8410256039470526 -0.1150550596164673 0.0
0.0000000000000000 0.0000000000000000 0.0
0.0000000000000000 0.0000000000000000 0.0
0.0000000000000000 0.0000000000000000 0.0
0.0000000000000000 0.0000000000000000 0.0
0.0000000000000000 0.0000000000000000 0.0
0.0000000000000000 0.0000000000000000 0.0
0.0000000000000000 0.0000000000000000 0.0
0.0000000000000000 0.0000000000000000 0.0
0.0000000000000000 0.0000000000000000 0.0
0.0000000000000000 0.0000000000000000 0.0
0.0000000000000000 0.0000000000000000 0.0
0.0000000000000000 0.0000000000000000 0.0
0.0000000000000000 0.0000000000000000 0.0
0.0000000000000000 0.0000000000000000 0.0
0.0000000000000000 0.0000000000000000 0.0
0.0000000000000000 0.0000000000000000 0.0
0.0000000000000000 0.0000000000000000 0.0
0.0000000000000000 0.0000000000000000 0.0
0.0000000000000000 0.0000000000000000 0.0
0.0000000000000000 0.0000000000000000 0.0
0.0000000000000000 0.0000000000000000 0.0
0.0000000000000000 0.0000000000000000 0.0
0.0000000000000000 0.0000000000000000 0.0
0.0000000000000000 0.0000000000000000 0.0
0.0000000000000000 0.0000000000000000 0.0
0.0000000000000000 0.0000000000000000 0.0
0.0000000000000000 0.0000000000000000 0.0
0.0000000000000000 0.0000000000000000 0.0
0.0000000000000000 0.0000000000000000 0.0
0.0000000000000000 0.0000000000000000 0.0
0.0000000000000000 0.0000000000000000 0.0
0.0000000000000000 0.0000000000000000 0.0
0.0000000000000000 0.0000000000000000 0.0
0.0000000000000000 0.0000000000000000 0.0
0.0000000000000000 0.0000000000000000 0.0
0.0000000000000000 0.0000000000000000 0.0
0.0000000000000000 0.0000000000000000 0.0
0.0000000000000000 0.0000000000000000 0.0
0.0000000000000000 0.0000000000000000 0.0
0.0000000000000000 0.0000000000000000 0.0
0.0000000000000000 0.0000000000000000 0.0
0.0000000000000000 0.0000000000000000 0.0
0.0000000000000000 0.0000000000000000 0.0
0.0000000000000000 0.0000000000000000 0.0
0.0000000000000000 0.0000000000000000 0.0
0.0000000000000000 0.0000000000000000 0.0
1.0000000000000000 0.0000000000000000 0.0
1.0000000000000000 0.0000000000000000 0.0
1.0000000000000000 0.0000000000000000 0.0
1.0000000000000000 0.0000000000000000 0.0
1.0000000000000000 0.0000000000000000 0.0
1.0000000000000000 0.0000000000000000 0.0
1.0000000000000000 0.0000000000000000 0.0
1.0000000000000000 0.0000000000000000 0.0
1.0000000000000000 0.0000000000000000 0.0
0.0000000000000000 0.0000000000000000 0.0
0.0000000000000000 0.0000000000000000 0.0
0.0000000000000000 0.0000000000000000 0.0
0.0000000000000000 0.0000000000000000 0.0
0.0000000000000000 0.0000000000000000 0.0
0.0000000000000000 0.0000000000000000 0.0
0.0000000000000000 0.0000000000000000 0.0
0.0000000000000000 0.0000000000000000 0.0
0.0000000000000000 0.0000000000000000 0.0
0.0000000000000000 0.0000000000000000 0.0
0.0000000000000000 0.0000000000000000 0.0
0.0000000000000000 0.0000000000000000 0.0
0.0000000000000000 0.0000000000000000 0.0
0.0000000000000000 0.0000000000000000 0.0
0.0000000000000000 0.0000000000000000 0.0
0.0000000000000000 0.0000000000000000 0.0
0.0000000000000000 0.0000000000000000 0.0
0.0000000000000000 0.0000000000000000 0.0
0.0000000000000000 0.0000000000000000 0.0
0.0000000000000000 0.0000000000000000 0.0
0.0000000000000000 0.0000000000000000 0.0
0.0000000000000000 0.0000000000000000 0.0
0.0000000000000000 0.0000000000000000 0.0
0.0000000000000000 0.0000000000000000 0.0
0.0000000000000000 0.0000000000000000 0.0
0.0000000000000000 0.0000000000000000 0.0
0.0000000000000000 0.0000000000000000 0.0
0.0000000000000000 0.0000000000000000 0.0
0.0000000000000000 0.0000000000000000 0.0
0.0000000000000000 0.0000000000000000 0.0
0.0000000000000000 0.0000000000000000 0.0
0.0000000000000000 0.0000000000000000 0.0
0.0000000000000000 0.0000000000000000 0.0
0.0000000000000000 0.0000000000000000 0.0
0.0000000000000000 0.0000000000000000 0.0
0.0000000000000000 0.0000000000000000 0.0
0.0000000000000000 0.0000000000000000 0.0
0.0000000000000000 0.0000000000000000 0.0
0.0000000000000000 0.0000000000000000 0.0
0.0000000000000000 0.0000000000000000 0.0
0.0000000000000000 0.0000000000000000 0.0
0.0000000000000000 0.0000000000000000 0.0
0.0000000000000000 0.0000000000000000 0.0
0.0000000000000000 0.0000000000000000 0.0
0.0000000000000000 0.0000000000000000 0.0
0.0000000000000000 0.0000000000000000 0.0
0.0000000000000000 0.0000000000000000 0.0
0.0000000000000000 0.0000000000000000 0.0
0.0000000000000000 0.0000000000000000 0.0
1.0691743060967276 -0.3807671010418899 0.0
0.9865392693126899 -0.1185866853479137 0.0
0.9787981774503788 -0.0277211990743765 0.0
1.0761630361441841 0.2816416928124179 0.0
1.1391754279905355 0.0031461950700802 0.0
1.1686280854564171 -0.0347805009928728 0.0
1.1870019409587564 -0.0722991669234516 0.0
1.1275106135968462 -0.0254411229624284 0.0
1.1996175565475451 -0.0506478894450161 0.0
1.2686110348079367 -0.0565756291031396 0.0
1.3052226866706684 -0.0111632005019795 0.0
1.3146759153835397 0.0073950539442844 0.0
1.3707364962674542 0.0486586727476635 0.0
1.3236665882133913 -0.0706691327408796 0.0
1.1542320965593404 -0.0077421818207899 0.0
1.1834582540295577 -0.0623459483397180 0.0
1.1225633342906574 0.0930590204503847 0.0
1.3719601973478950 0.0444720479847018 0.0
1.3619007968216019 0.0186913000470402 0.0
1.1827298608852723 -0.0476811123411092 0.0
1.2190899585051942 -0.0545569773318636 0.0
1.1524341273169028 -0.0038104341393485 0.0
1.4360772799999504 -0.0306010563030661 0.0
1.4600002391788907 0.0124834923782146 0.0
1.0945119246831501 0.0550236907871926 0.0
1.2134077945416266 -0.1028029428019813 0.0
1.4573855434824332 0.0325556352743911 0.0
1.4606304553112226 -0.0215463679270786 0.0
1.4858410860759828 0.0265233699712749 0.0
1.5087265060912638 0.0247998839922448 0.0
1.3116337005208625 -0.1240623563408118 0.0
1.4761433335339238 -0.0214187085383140 0.0
1.5776892291093287 0.0265794226155868 0.0
1.2241009072501359 0.0680195454207074 0.0
1.1580774416903665 -0.0186176819293434 0.0
1.3370414523040102 -0.0218998354909126 0.0
1.2174908595539664 -0.1086035489809538 0.0
1.3449543751528386 0.0758595264924173 0.0
1.4861582171647971 -0.0105659414610376 0.0
1.5845693379963250 -0.0821547776320024 0.0
1.6376903910885805 -0.0505528524773003 0.0
1.2124790686945204 -0.0332472603888803 0.0
1.5451578282431573 -0.0215465409680110 0.0
1.1515128288687420 0.0323343384300332 0.0
1.1354393802519887 -0.0480599425503409 0.0
1.3046645404100843 -0.0879137774891321 0.0
1.1807344471095718 -0.0820485853805904 0.0
1.0928252449731040 -0.0498637162345724 0.0
1.2321179860299016 -0.0458466905053331 0.0
1.1428050459897634 -0.0130234637599022 0.0
1.6887864624609110 -0.1123079528017385 0.0
1.3433279251767907 0.0074018525128738 0.0
1.1273762026542760 -0.0645803930988045 0.0
1.1752619031415070 -0.0512690692621815 0.0
1.3588905110310074 0.0305973228659287 0.0
1.3065244150281541 0.0012842887945911 0.0
1.2880733138064833 -0.0149635791609635 0.0
1.0499321957183019 0.0127438541761237 0.0
1.2299715537602542 -0.0555201577350927 0.0
1.2754098180868720 0.0084655755940353 0.0
1.3873109607306797 -0.0783944671604740 0.0
1.2526557120283301 -0.0281999462284170 0.0
1.2457525256657036 -0.1338134932055292 0.0
1.1612451400023569 0.2040312534034703 0.0
1.0468358547021055 0.1241527365840620 0.0
1.1814936821598008 -0.0352858899418361 0.0
1.1240817896817388 0.0342614113290320 0.0
1.3887547148628447 0.0598049978248217 0.0
1.2592075051071379 0.0123271774759383 0.0
1.6793007904214885 0.0474191915345769 0.0
1.4101389786020502 0.0397995337867531 0.0
1.1595837138628942 -0.0201757499170145 0.0
1.1225146227793579 -0.1011625653194591 0.0
1.2318447160022257 -0.0567554659445619 0.0
1.5123775404443141 -0.1215589404389655 0.0
1.3046586091559154 0.0516297462872595 0.0
1.3921299836529231 0.0765408901454597 0.0
1.1484842412392724 -0.0212001429972700 0.0
1.2568737889542707 -0.0244083314695679 0.0
1.4436238357479692 -0.0295610240296133 0.0
1.5015688998060672 0.0390724535509754 0.0
1.1432752008586531 -0.0002164105531040 0.0
1.1872048915895046 -0.0443838130279797 0.0
1.2005761271589133 -0.0455133582689294 0.0
1.1613102351463220 -0.1352717775537179 0.0
1.2196353340424169 -0.0740094735010106 0.0
1.2878645424907209 -0.1323648990184063 0.0
1.5058934830606154 -0.0015139572503967 0.0
0.9414824048412890 0.0172382235987250 0.0
1.0781184923201852 0.0588073808294781 0.0
1.6146290456063477 0.0285364870276028 0.0
1.2972667893457945 0.0308612697354361 0.0
1.1604303311162780 -0.0534320475744056 0.0
1.1399575730316274 -0.0303704447685309 0.0
1.2878692390052260 0.0249467544452958 0.0
1.1963104845875776 -0.1898495772094099 0.0
1.1086025108822470 0.0253684663494907 0.0
1.4744368165306039 0.0124965329696968 0.0
1.5450376088431046 -0.0113230376240126 0.0
1.1387755275521694 -0.0224777263446494 0.0
1.4969875640653592 0.0454914608828377 0.0
1.0627548251471812 -0.0594552581175182 0.0
1.2589735054470417 0.0097664100585168 0.0
1.2380535084169175 -0.0215032296276220 0.0
1.3022564281958851 0.0267041839013957 0.0
1.5492346134782746 -0.0258786310146070 0.0
1.2258793483175614 -0.1166573707527177 0.0
1.3851782855218822 0.0262238158462472 0.0
1.4081272960871720 0.0618070014174363 0.0
1.3395423813377572 -0.0716068595129976 0.0
0.7963463841786431 -0.0761127408581199 0.0
1.1876165128320451 -0.0765383661369107 0.0
0.8034837486487517 -0.0054446517567364 0.0
1.1857747185378016 -0.0535518741624593 0.0
1.0382159603294938 0.0427661970233709 0.0
1.1162344582867871 0.0069941982084889 0.0
1.2164048533389993 0.1605771591715929 0.0
1.1158076040044298 0.0431196764774269 0.0
1.0032629099082810 0.0187855050486101 0.0
1.1646960086021449 -0.0348877268512101 0.0
0.8304550132592627 0.0081519464344110 0.0
1.5332284577566282 0.0115864956038948 0.0
1.0487968977723441 0.0678052483645674 0.0
1.1844036738558723 -0.0593347463755220 0.0
1.1139816958428348 0.0059528726854745 0.0
1.2881233740889677 -0.0807280046855525 0.0
0.7969246715511572 -0.0416185272040512 0.0
1.1257892161273444 -0.0486393775314376 0.0
1.1669993006135098 -0.0298911655114560 0.0
1.1705347915675111 -0.0664716275849031 0.0
1.4962698047660881 -0.0014617151328561 0.0
1.4868921147189436 0.0321579301822937 0.0
1.1328398772141655 -0.0087767434386645 0.0
1.2425943088643259 -0.0287058831896350 0.0
0.9036624620570795 0.0229276668736399 0.0
0.7501189043131189 0.0021626733023811 0.0
0.7035188490338906 0.0298622720131326 0.0
1.1730460466114594 -0.0448030281295182 0.0
0.8228686527796374 0.0810954688960173 0.0
0.8499865711889758 -0.0025130214416104 0.0
1.3166823867790087 -0.0040805752324927 0.0
1.2235106063705308 -0.0434728321153902 0.0
1.2797286933685090 -0.0258033473145265 0.0
1.3665487054041336 0.0319347105024354 0.0
1.1698339550175383 -0.0296467950861752 0.0
1.4882804804632854 0.0031077591137976 0.0
1.2343704370761170 0.0661381188143978 0.0
1.1100456687927813 -0.1341966164488196 0.0
1.0939723843071545 0.0863327092382115 0.0
1.0802770486253979 0.1669367322856348 0.0
1.0599026612069218 -0.0329265940690148 0.0
1.1617479023694450 0.0226909165619724 0.0
0.9535099808235110 0.0088306827909655 0.0
0.8048046029305493 0.0506137120403767 0.0
0.9990341684167384 -0.0076683553274800 0.0
1.1537717819810056 -0.0138017146174465 0.0
0.8292655423532044 0.0768564795531842 0.0
1.1542390400269291 0.0054438206341506 0.0
1.1663354165523903 -0.0297720673402102 0.0
1.0807808754109152 -0.0014979535000854 0.0
1.2614875147756295 0.0196972977642341 0.0
1.3295723522955953 0.0286854461008871 0.0
1.1299479585428174 -0.0411575789658862 0.0
1.1899891230454265 -0.0569755349977303 0.0
0.7801087906903067 0.0679995795557575 0.0
0.7783424808001129 0.0508119354289938 0.0
0.8896484221871997 -0.0021683106261024 0.0
1.2908813636274838 -0.0680079934003197 0.0
1.1805962165246744 -0.0397094322813019 0.0
0.8072285666607135 0.0783670592784717 0.0
0.8673834752347196 -0.0190311906797551 0.0
1.0836174600444348 0.0101078235623377 0.0
1.2297712235247649 -0.0568547175570540 0.0
1.0502447407779913 0.0149857677492137 0.0
1.1265019650556227 0.0105571624455730 0.0
1.1593672025457227 -0.0365975422597187 0.0
0.9828887359257023 0.0026630146996993 0.0
0.9401557375967050 0.0408581461855337 0.0
1.2777331924859037 -0.0073822923408109 0.0
0.8850224813644685 -0.0149840314073165 0.0
1.3921261151071469 -0.0147916924893523 0.0
0.8437072296063800 0.0213618948282539 0.0
0.8371733697130422 -0.0142181032685051 0.0
1.1607182337990745 -0.0314856358201118 0.0
1.1435019220198051 -0.0094090682468005 0.0
1.0305175996380458 -0.0006140377310109 0.0
0.8302029623244540 0.0896565138327665 0.0
0.8757937528041623 0.0037119702867040 0.0
1.1590066894003157 -0.0066131653060202 0.0
0.9582971921889784 0.0133599161417113 0.0
1.1438317655104369 0.0683518159271472 0.0
1.2296312362319184 -0.0809833664877731 0.0
0.7958529433414111 0.0189937684001258 0.0
1.3039667700252706 -0.0114964997348244 0.0
0.9751542458940458 -0.0062464023937938 0.0
1.2857432405299256 -0.0162525138268016 0.0
0.6839006654877715 -0.0329854856767737 0.0
1.2045932391914509 -0.0866108363271493 0.0
1.3399037406422822 -0.0119471348541281 0.0
0.8215954251299903 0.0622191335671170 0.0
0.8481782975034327 -0.0261503247658811 0.0
1.3656103496534715 0.0545020333562093 0.0
1.0287325655929862 0.0171673522363305 0.0
1.3544404630773781 0.0324412929625946 0.0
1.1937560366705104 -0.0666727149289316 0.0
0.8878211353449309 -0.0387078489281453 0.0
0.8540491532728088 -0.0041309879672422 0.0
1.0025168874592778 -0.0126241906273646 0.0
1.0011347937225006 0.0221325030631175 0.0
1.4484743762400487 0.0017339368516510 0.0
0.6985878930093845 0.0312328653833262 0.0
0.9120302582744788 -0.0455597238552852 0.0
0.8589427648101792 0.0427826592807586 0.0
1.3483532539330301 0.0314054975035142 0.0
0.8486769905726439 -0.1586054258791914 0.0
0.8568339524555486 -0.0113946776099346 0.0
0.6708197220038047 -0.0287811639811944 0.0
1.2191242867475891 -0.0346822245306573 0.0
0.8579982963846737 0.1080446953967677 0.0
0.8960034131870790 0.0428695126679002 0.0
1.1945639248205873 -0.1010925741221161 0.0
0.8617357282103481 -0.0015157538978895 0.0
0.9435118116031656 -0.0095173744147413 0.0
1.1810788930662675 -0.0572279771834757 0.0
0.8662186132389686 -0.0104240892858388 0.0
0.8221643750751574 -0.0325052565364137 0.0
1.2913932581148349 0.0328922591336147 0.0
0.8975836300556207 -0.0159788981937868 0.0
1.0282693843653461 -0.0248425815194262 0.0
0.8481475759533382 0.0495555090873182 0.0
1.2163447045035756 -0.0669007159441872 0.0
0.7617240011741259 -0.0110956107704521 0.0
0.6324196798605229 0.0172852533697668 0.0
1.0919817261507623 -0.0004298651338206 0.0
0.9288098867534913 0.0521847318149262 0.0
0.8172598954179338 -0.0110531395174206 0.0
0.9702414889048379 0.0310468195920588 0.0
1.1410119696287884 -0.0070861340065220 0.0
0.8181410895026048 -0.0153993992577162 0.0
1.1325639402092931 0.0983042130484808 0.0
1.3105391891686173 0.0004646317293228 0.0
0.7536195266744422 -0.0014880078591578 0.0
1.0804341717258157 0.0060153337483840 0.0
1.1380881659378930 -0.0176055664068420 0.0
1.1390180781485564 -0.0371156642357960 0.0
1.1802467075618297 -0.0589355318313911 0.0
0.6689190111543429 0.1360277289906419 0.0
1.5762317548171971 0.0154386091588652 0.0
1.1368548560409584 0.0134238979511389 0.0
0.7013871736156294 0.0592845344978495 0.0
1.1823158835011736 -0.0685869025223178 0.0
1.2747724204643960 -0.0842602465954675 0.0
0.7754292097647900 -0.0018386785498293 0.0
1.0240853503461373 0.0107678167112653 0.0
0.7060260583209077 -0.0340465446355079 0.0
0.9493113129048517 -0.0697616877556912 0.0
0.8202998616306739 -0.0667912497831373 0.0
0.5937999026962238 0.1511648320709154 0.0
1.1579208942365813 0.0968451314835807 0.0
1.5049234393331901 0.0242486997450033 0.0
0.7416132456928047 0.1462103150586350 0.0
1.3898925753716964 -0.0157282439022640 0.0
1.6567328349904245 0.0292003829861027 0.0
0.7396630177105508 0.1206886190896037 0.0
1.3670398378751649 0.0545286814785285 0.0
1.2928964147806197 -0.1058477912565962 0.0
0.9592560139665322 0.2165162503420275 0.0
1.2856606056992013 -0.0240548495027424 0.0
1.3090766839575225 0.0172226861060101 0.0
0.8059221704444678 0.0820781006253969 0.0
1.2857130745043286 -0.0535739939820379 0.0
0.8457894984548283 -0.0523769731422959 0.0
0.7936145190621795 0.1188757808985327 0.0
0.6094925097496019 0.0457045535828837 0.0
1.2147302177460175 -0.0254444207427215 0.0
0.9286292691676636 -0.2347883369421622 0.0
1.3416260433703693 0.0646478970254447 0.0
1.2587571050595896 -0.0416092295398156 0.0
0.6844049087552743 -0.0167683633003456 0.0
0.7081229201645869 0.0501835566398777 0.0
0.7692994340025378 0.0105406837379787 0.0
1.0809982146720756 0.0382490536164346 0.0
1.1235087618870927 0.1509169653079891 0.0
0.7044654362205678 -0.0458024199238355 0.0
1.1813871034655632 -0.0270104186941299 0.0
0.6731357967270389 0.0558828826046603 0.0
1.4981359004948656 0.0231277901105246 0.0
0.6266226900451065 0.1773009241202630 0.0
0.8458242249941565 -0.1047723171985820 0.0
1.4106641723362714 -0.0451340868932002 0.0
1.2668255537289301 0.0206745206041667 0.0
1.2613998725094442 -0.0742997591431508 0.0
0.7620161391791248 0.0036379347544717 0.0
0.9019960752297204 -0.0303760836257290 0.0
1.3064552647473302 -0.0708491649904656 0.0
1.1549192497243863 -0.0283944673060570 0.0
1.0162224774727593 0.0654948314956317 0.0
1.3449181104100774 0.0312790134771174 0.0
1.1751956061429856 -0.0365364622205198 0.0
1.1173084903799124 0.0623996428983050 0.0
1.0743154803561858 0.0049499640900618 0.0
0.7806599028338166 -0.0246541199626301 0.0
0.7245986917218808 -0.0351958912525530 0.0
1.2135479645407949 -0.0517706779786737 0.0
1.1674218256757600 -0.0294463554949759 0.0
1.0731435984927622 0.0890642485694198 0.0
0.5423159218410661 0.0356824125249989 0.0
1.3407153609855236 -0.1073825494351719 0.0
0.4901652577227325 0.0850008119525163 0.0
0.7690136620134680 0.0913771087893649 0.0
1.2038356171136473 -0.0555634264338817 0.0
0.6265279745209419 -0.1288098952832702 0.0
1.1348487985898283 -0.2328199691327836 0.0
1.1851876410498281 -0.0365472218771983 0.0
1.4842014394435064 -0.0087958149093483 0.0
0.7568841325896601 0.0881770693804517 0.0
1.4836754469134936 -0.0469918624828976 0.0
0.9310637550959218 -0.0236023355189145 0.0
1.1884372720959915 -0.0408900667160277 0.0
0.9334079611727433 -0.0220051631914718 0.0
0.6785202784256331 0.1280903558891910 0.0
0.9417295413245748 -0.0376467085289466 0.0
1.0684028775030892 -0.0397682864986330 0.0