# vtk DataFile Version 3.0
LucasCarvalhoTCC Results
ASCII

DATASET POLYDATA
FIELD FieldData 1
TIME 1 1 double
2.0

POINTS 600 float
0.0 2.0 0.0
0.25 1.989125 0.0
0.5 1.958 0.0
0.75 1.908875 0.0
1.0 1.844 0.0
1.25 1.765625 0.0
1.5 1.676 0.0
1.75 1.577375 0.0
2.0 1.472 0.0
2.25 1.362125 0.0
2.5 1.25 0.0
2.75 1.137875 0.0
3.0 1.028 0.0
3.25 0.922625 0.0
3.5 0.8240000000000001 0.0
3.75 0.734375 0.0
4.0 0.6560000000000001 0.0
4.25 0.5911249999999999 0.0
4.5 0.542 0.0
4.75 0.510875 0.0
5.0 0.5 0.0
5.25 0.5036250000000004 0.0
5.5 0.5140000000000002 0.0
5.75 0.5303750000000003 0.0
6.0 0.5519999999999996 0.0
6.25 0.578125 0.0
6.5 0.6080000000000005 0.0
6.75 0.6408749999999999 0.0
7.0 0.6760000000000002 0.0
7.25 0.7126249999999992 0.0
7.5 0.75 0.0
7.75 0.7873750000000004 0.0
8.0 0.8239999999999994 0.0
8.25 0.8591250000000001 0.0
8.5 0.8919999999999999 0.0
8.75 0.921875 0.0
9.0 0.9479999999999991 0.0
9.25 0.9696250000000011 0.0
9.5 0.9859999999999984 0.0
9.75 0.9963750000000013 0.0
10.0 1.0 0.0
0.0 0.0 0.0
10.0 0.0 0.0
0.124999999999674 1.994562500000014 0.0
0.3749999999999947 1.973562500000001 0.0
0.6249999999999918 1.933437500000002 0.0
0.874999999999979 1.876437500000006 0.0
1.124999999999963 1.804812500000012 0.0
1.374999999999944 1.72081250000002 0.0
1.624999999999985 1.626687500000006 0.0
1.874999999999953 1.52468750000002 0.0
2.124999999999936 1.417062500000028 0.0
2.374999999999952 1.306062500000022 0.0
2.624999999999919 1.193937500000036 0.0
2.87499999999992 1.082937500000035 0.0
3.124999999999946 0.9753125000000229 0.0
3.374999999999948 0.8733125000000204 0.0
3.624999999999972 0.77918750000001 0.0
3.874999999999963 0.6951875000000118 0.0
4.124999999999968 0.6235625000000082 0.0
4.394409538298571 0.5627485257243309 0.0
4.583333333333322 0.5316250000000015 0.0
4.666666666666668 0.5212499999999999 0.0
4.833333333333334 0.50725 0.0
4.916666666666667 0.503625 0.0
5.083333333333334 0.5012083333333335 0.0
5.166666666666666 0.502416666666667 0.0
5.333333333333334 0.5070833333333337 0.0
5.416666666666667 0.510541666666667 0.0
5.583333333333334 0.5194583333333336 0.0
5.666666666666666 0.5249166666666669 0.0
5.833333333333338 0.5375833333333339 0.0
5.916666666666661 0.544791666666666 0.0
6.105781577147724 0.5630541748119369 0.0
6.375 0.5930625000000003 0.0
6.624999999999988 0.6244374999999988 0.0
6.874999999999994 0.6584374999999991 0.0
7.125 0.6943124999999997 0.0
7.375 0.7313124999999996 0.0
7.624999999999994 0.7686874999999992 0.0
7.875 0.8056874999999999 0.0
8.125 0.8415624999999998 0.0
8.374999999999991 0.8755624999999989 0.0
8.624999999999995 0.9069374999999993 0.0
8.874999999999995 0.9349374999999991 0.0
9.125 0.9588125000000001 0.0
9.375 0.9778124999999998 0.0
9.625 0.9911874999999999 0.0
9.875 0.9981875000000007 0.0
0.0 1.799999999999167 0.0
0.0 1.6 0.0
0.0 1.400000000001387 0.0
0.0 1.200000000002774 0.0
0.0 1.000000000004117 0.0
0.0 0.8000000000033287 0.0
0.0 0.6000000000024965 0.0
0.0 0.4000000000016644 0.0
0.0 0.200000000000832 0.0
0.199999999999856 0.0 0.0
0.3999999999996677 0.0 0.0
0.5999999999994683 0.0 0.0
0.7999999999993286 0.0 0.0
0.9999999999991888 0.0 0.0
1.199999999999033 0.0 0.0
1.399999999998576 0.0 0.0
1.599999999997992 0.0 0.0
1.799999999997408 0.0 0.0
1.999999999996825 0.0 0.0
2.199999999996241 0.0 0.0
2.399999999995657 0.0 0.0
2.599999999995073 0.0 0.0
2.79999999999449 0.0 0.0
2.999999999993906 0.0 0.0
3.199999999993322 0.0 0.0
3.399999999992738 0.0 0.0
3.599999999992154 0.0 0.0
3.799999999991571 0.0 0.0
3.999999999991022 0.0 0.0
4.199999999991187 0.0 0.0
4.399999999991491 0.0 0.0
4.599999999991795 0.0 0.0
4.799999999992099 0.0 0.0
4.999999999992403 0.0 0.0
5.199999999992706 0.0 0.0
5.39999999999301 0.0 0.0
5.599999999993313 0.0 0.0
5.799999999993618 0.0 0.0
5.999999999993922 0.0 0.0
6.199999999994227 0.0 0.0
6.39999999999453 0.0 0.0
6.599999999994833 0.0 0.0
6.799999999995138 0.0 0.0
6.999999999995442 0.0 0.0
7.199999999995747 0.0 0.0
7.39999999999605 0.0 0.0
7.599999999996353 0.0 0.0
7.799999999996658 0.0 0.0
7.999999999996962 0.0 0.0
8.199999999997265 0.0 0.0
8.399999999997569 0.0 0.0
8.599999999997873 0.0 0.0
8.799999999998176 0.0 0.0
8.99999999999848 0.0 0.0
9.199999999998786 0.0 0.0
9.399999999999089 0.0 0.0
9.599999999999392 0.0 0.0
9.799999999999697 0.0 0.0
10.0 0.1999999999995579 0.0
10.0 0.3999999999989749 0.0
10.0 0.5999999999989468 0.0
10.0 0.7999999999994734 0.0
0.913963423524136 0.9126937851647636 0.0
1.629657910441747 0.8286436141773268 0.0
2.300136613917738 0.6369890708869279 0.0
0.5989085226155619 1.38125543468559 0.0
1.274155622640533 1.242773398230304 0.0
2.860215383945273 0.5217401976756945 0.0
9.469653920408135 0.4910067017840992 0.0
8.984679546317787 0.4696119782494839 0.0
8.499397693277212 0.4463630640980716 0.0
3.270918412356206 0.4522692359356972 0.0
1.223039611612243 0.5146439900227544 0.0
2.024812732135938 1.00818256045515 0.0
0.5365376864627701 0.5434316309416508 0.0
8.114834335444021 0.4602948767329583 0.0
7.742261962994204 0.4117304941858466 0.0
0.9443382341364558 1.456061359265878 0.0
1.665275621558886 1.201744468407863 0.0
1.89566112584099 0.4397284596316843 0.0
3.691409759982064 0.3560936332572802 0.0
7.368457390036411 0.3792926046732459 0.0
0.5071184951703254 0.9340893429149442 0.0
0.3822273842356539 1.647625881691675 0.0
5.916285335387544 0.2564903116750689 0.0
5.628860531758535 0.2582323053999509 0.0
5.380471017960128 0.2502349014663197 0.0
5.139244585769944 0.2549145445969738 0.0
2.686085237972266 0.8031095648160084 0.0
4.507599040026292 0.263176944655695 0.0
6.983755234374982 0.3380000000001097 0.0
9.720925955181613 0.6635813325201156 0.0
1.288006195687152 0.8759679848503046 0.0
9.20556379558699 0.6923669083350594 0.0
2.319913492084225 0.9512500928262699 0.0
8.73203612228155 0.6151508464420534 0.0
4.868679481352366 0.2526598053940744 0.0
4.10358044398202 0.3012437332986487 0.0
6.602422946953217 0.3126221952225479 0.0
2.534693527909069 0.3583319619586092 0.0
6.193332317503376 0.2894654215336858 0.0
0.8804088217382579 0.3735513844182569 0.0
0.7663303172393539 1.679065267574722 0.0
3.081211528283084 0.6968015573146217 0.0
1.241762689885858 1.521465072418641 0.0
1.573472750763779 0.3374689934575129 0.0
1.475107933015155 1.403918544935278 0.0
0.8212739503602162 1.195790902469637 0.0
4.681049549092561 0.3558177014380842 0.0
9.439519900118443 0.7366884444350511 0.0
2.201393787062887 0.3261463175998884 0.0
2.015369189818184 0.7109460688851087 0.0
8.32727069655695 0.6360373328685593 0.0
8.961488632119996 0.7119124617705204 0.0
9.22773266034565 0.3109430611770705 0.0
0.3000513553073295 1.178778127105867 0.0
1.91985473842554 1.233084801189704 0.0
8.749827252515535 0.3049638092131281 0.0
3.50551132590258 0.5576614504134195 0.0
3.040500962406976 0.290446660105673 0.0
9.72097519930939 0.3037986529514364 0.0
0.3073166349239687 0.3249300260882615 0.0
0.2948185331392187 0.7229775107826154 0.0
1.46029425821417 1.06552904833304 0.0
0.8085718129253527 0.673531272847494 0.0
7.913326191751847 0.5738936378911789 0.0
8.295349499871781 0.2556682497524391 0.0
4.31359646688283 0.3665214152100782 0.0
7.542842082022704 0.5249918217576657 0.0
1.058357552227335 1.116692590939024 0.0
2.214297272750292 1.159898327391242 0.0
2.901187336648686 0.8282146771898153 0.0
3.933498145061447 0.4325241689837319 0.0
7.956006969037984 0.2667411694088205 0.0
7.172393179434975 0.4835114022190097 0.0
1.440243631802057 0.6689433452646625 0.0
3.458541882144431 0.2581755850286561 0.0
5.791617360065465 0.3978542524532168 0.0
5.981529865241493 0.3900667299390458 0.0
1.083462543944253 0.7203994120564634 0.0
1.78518471978951 1.008552691762234 0.0
2.77360122246243 0.2689852172070111 0.0
2.565134389978369 0.9928826788184764 0.0
2.543046005790158 0.6034091352176242 0.0
3.293038780485421 0.6769811703257343 0.0
6.790787388653942 0.4353933509634578 0.0
1.140204059461831 0.2538227257007896 0.0
0.6242104065654487 0.2738473600765566 0.0
6.393430278703709 0.3766405270445946 0.0
8.533059390324546 0.6950580701614406 0.0
0.9961263693263854 1.612128843772703 0.0
1.697598586607002 0.5781950992180334 0.0
8.087930458724863 0.6517815437732153 0.0
0.2748906317360928 1.770749713716887 0.0
0.5785110002099415 1.757022387413085 0.0
5.550004842562332 0.3852675728674634 0.0
4.948161884155141 0.3480305424737933 0.0
1.741244734175577 1.381979611033466 0.0
5.312408927381063 0.3621256994047111 0.0
0.2492139438157334 1.453132031680879 0.0
7.597720022451821 0.2370268512906596 0.0
9.471021754366422 0.2472916581956264 0.0
7.714083843672875 0.600212897672991 0.0
4.520815862079482 0.3946753115680038 0.0
2.47356661122767 0.8007389356831706 0.0
7.325494311403363 0.528948935030723 0.0
7.147005275585743 0.2709670165999667 0.0
3.758046446289313 0.5474783841545341 0.0
3.893717059615281 0.1664960777568404 0.0
2.152835534199412 0.8614028741175742 0.0
8.995993312441625 0.1933410497113667 0.0
1.077676137392001 1.368204555688504 0.0
0.2429906229817933 0.9816066505657851 0.0
0.6261765586985547 1.180540007244081 0.0
9.81151801018651 0.816223424030724 0.0
0.6725442903064565 0.8425384371773644 0.0
1.74584086891446 0.2617492458514414 0.0
0.7667820686164357 1.440842670056678 0.0
8.539133693395232 0.1910926418035274 0.0
5.129145653242096 0.3632579123815574 0.0
6.816538849831732 0.2013284992826486 0.0
2.108503954619862 0.5359795950847274 0.0
6.933669557130528 0.4980836483776163 0.0
3.071406705674529 0.4919421055852253 0.0
2.001240035874449 0.2292738462614773 0.0
4.782473531509697 0.4061213127162872 0.0
0.5734126310178208 1.536352720889636 0.0
9.796714529589472 0.4898048068674991 0.0
5.678359041645315 0.373719883316694 0.0
5.427661572827738 0.3646059266294788 0.0
2.075214597532947 1.226969224366912 0.0
3.251521478555126 0.2637671977660283 0.0
2.722180837291864 0.9710783334409533 0.0
9.333262390342384 0.8479609887828539 0.0
1.367251332770493 0.2041553944563636 0.0
1.870721433742522 0.7905989208842599 0.0
1.387906762913351 1.555741687747287 0.0
9.559918612869 0.8444052974080497 0.0
9.286795039366257 0.4698254290795815 0.0
1.507117480770146 1.225129516597721 0.0
[...]
POINT_DATA 600

VECTORS Velocity float
0.0000000000000000 0.0000000000000000 0.0
0.0000000000000000 0.0000000000000000 0.0
0.0000000000000000 0.0000000000000000 0.0
0.0000000000000000 0.0000000000000000 0.0
0.0000000000000000 0.0000000000000000 0.0
0.0000000000000000 0.0000000000000000 0.0
0.0000000000000000 0.0000000000000000 0.0
0.0000000000000000 0.0000000000000000 0.0
0.0000000000000000 0.0000000000000000 0.0
0.0000000000000000 0.0000000000000000 0.0
0.0000000000000000 0.0000000000000000 0.0
0.0000000000000000 0.0000000000000000 0.0
0.0000000000000000 0.0000000000000000 0.0
0.0000000000000000 0.0000000000000000 0.0
0.0000000000000000 0.0000000000000000 0.0
0.0000000000000000 0.0000000000000000 0.0
0.0000000000000000 0.0000000000000000 0.0
0.0000000000000000 0.0000000000000000 0.0
0.0000000000000000 0.0000000000000000 0.0
0.0000000000000000 0.0000000000000000 0.0
0.0000000000000000 0.0000000000000000 0.0
0.0000000000000000 0.0000000000000000 0.0
0.0000000000000000 0.0000000000000000 0.0
0.0000000000000000 0.0000000000000000 0.0
0.0000000000000000 0.0000000000000000 0.0
0.0000000000000000 0.0000000000000000 0.0
0.0000000000000000 0.0000000000000000 0.0
0.0000000000000000 0.0000000000000000 0.0
0.0000000000000000 0.0000000000000000 0.0
0.0000000000000000 0.0000000000000000 0.0
0.0000000000000000 0.0000000000000000 0.0
0.0000000000000000 0.0000000000000000 0.0
0.0000000000000000 0.0000000000000000 0.0
0.0000000000000000 0.0000000000000000 0.0
0.0000000000000000 0.0000000000000000 0.0
0.0000000000000000 0.0000000000000000 0.0
0.0000000000000000 0.0000000000000000 0.0
0.0000000000000000 0.0000000000000000 0.0
0.0000000000000000 0.0000000000000000 0.0
0.0000000000000000 0.0000000000000000 0.0
0.0000000000000000 0.0000000000000000 0.0
0.0000000000000000 0.0000000000000000 0.0
0.8246745452371675 -0.1311801250706462 0.0
0.0000000000000000 0.0000000000000000 0.0
0.0000000000000000 0.0000000000000000 0.0
0.0000000000000000 0.0000000000000000 0.0
0.0000000000000000 0.0000000000000000 0.0
0.0000000000000000 0.0000000000000000 0.0
0.0000000000000000 0.0000000000000000 0.0
0.0000000000000000 0.0000000000000000 0.0
0.0000000000000000 0.0000000000000000 0.0
0.0000000000000000 0.0000000000000000 0.0
0.0000000000000000 0.0000000000000000 0.0
0.0000000000000000 0.0000000000000000 0.0
0.0000000000000000 0.0000000000000000 0.0
0.0000000000000000 0.0000000000000000 0.0
0.0000000000000000 0.0000000000000000 0.0
0.0000000000000000 0.0000000000000000 0.0
0.0000000000000000 0.0000000000000000 0.0
0.0000000000000000 0.0000000000000000 0.0
0.0000000000000000 0.0000000000000000 0.0
0.0000000000000000 0.0000000000000000 0.0
0.0000000000000000 0.0000000000000000 0.0
0.0000000000000000 0.0000000000000000 0.0
0.0000000000000000 0.0000000000000000 0.0
0.0000000000000000 0.0000000000000000 0.0
0.0000000000000000 0.0000000000000000 0.0
0.0000000000000000 0.0000000000000000 0.0
0.0000000000000000 0.0000000000000000 0.0
0.0000000000000000 0.0000000000000000 0.0
0.0000000000000000 0.0000000000000000 0.0
0.0000000000000000 0.0000000000000000 0.0
0.0000000000000000 0.0000000000000000 0.0
0.0000000000000000 0.0000000000000000 0.0
0.0000000000000000 0.0000000000000000 0.0
0.0000000000000000 0.0000000000000000 0.0
0.0000000000000000 0.0000000000000000 0.0
0.0000000000000000 0.0000000000000000 0.0
0.0000000000000000 0.0000000000000000 0.0
0.0000000000000000 0.0000000000000000 0.0
0.0000000000000000 0.0000000000000000 0.0
0.0000000000000000 0.0000000000000000 0.0
0.0000000000000000 0.0000000000000000 0.0
0.0000000000000000 0.0000000000000000 0.0
0.0000000000000000 0.0000000000000000 0.0
0.0000000000000000 0.0000000000000000 0.0
0.0000000000000000 0.0000000000000000 0.0
0.0000000000000000 0.0000000000000000 0.0
0.0000000000000000 0.0000000000000000 0.0
1.0000000000000000 0.0000000000000000 0.0
1.0000000000000000 0.0000000000000000 0.0
1.0000000000000000 0.0000000000000000 0.0
1.0000000000000000 0.0000000000000000 0.0
1.0000000000000000 0.0000000000000000 0.0
1.0000000000000000 0.0000000000000000 0.0
1.0000000000000000 0.0000000000000000 0.0
1.0000000000000000 0.0000000000000000 0.0
1.0000000000000000 0.0000000000000000 0.0
0.0000000000000000 0.0000000000000000 0.0
0.0000000000000000 0.0000000000000000 0.0
0.0000000000000000 0.0000000000000000 0.0
0.0000000000000000 0.0000000000000000 0.0
0.0000000000000000 0.0000000000000000 0.0
0.0000000000000000 0.0000000000000000 0.0
0.0000000000000000 0.0000000000000000 0.0
0.0000000000000000 0.0000000000000000 0.0
0.0000000000000000 0.0000000000000000 0.0
0.0000000000000000 0.0000000000000000 0.0
0.0000000000000000 0.0000000000000000 0.0
0.0000000000000000 0.0000000000000000 0.0
0.0000000000000000 0.0000000000000000 0.0
0.0000000000000000 0.0000000000000000 0.0
0.0000000000000000 0.0000000000000000 0.0
0.0000000000000000 0.0000000000000000 0.0
0.0000000000000000 0.0000000000000000 0.0
0.0000000000000000 0.0000000000000000 0.0
0.0000000000000000 0.0000000000000000 0.0
0.0000000000000000 0.0000000000000000 0.0
0.0000000000000000 0.0000000000000000 0.0
0.0000000000000000 0.0000000000000000 0.0
0.0000000000000000 0.0000000000000000 0.0
0.0000000000000000 0.0000000000000000 0.0
0.0000000000000000 0.0000000000000000 0.0
0.0000000000000000 0.0000000000000000 0.0
0.0000000000000000 0.0000000000000000 0.0
0.0000000000000000 0.0000000000000000 0.0
0.0000000000000000 0.0000000000000000 0.0
0.0000000000000000 0.0000000000000000 0.0
0.0000000000000000 0.0000000000000000 0.0
0.0000000000000000 0.0000000000000000 0.0
0.0000000000000000 0.0000000000000000 0.0
0.0000000000000000 0.0000000000000000 0.0
0.0000000000000000 0.0000000000000000 0.0
0.0000000000000000 0.0000000000000000 0.0
0.0000000000000000 0.0000000000000000 0.0
0.0000000000000000 0.0000000000000000 0.0
0.0000000000000000 0.0000000000000000 0.0
0.0000000000000000 0.0000000000000000 0.0
0.0000000000000000 0.0000000000000000 0.0
0.0000000000000000 0.0000000000000000 0.0
0.0000000000000000 0.0000000000000000 0.0
0.0000000000000000 0.0000000000000000 0.0
0.0000000000000000 0.0000000000000000 0.0
0.0000000000000000 0.0000000000000000 0.0
0.0000000000000000 0.0000000000000000 0.0
0.0000000000000000 0.0000000000000000 0.0
0.0000000000000000 0.0000000000000000 0.0
1.0710799897463397 -0.4610112878543873 0.0
0.9670469394423399 -0.1932697375500002 0.0
0.9836141406392693 -0.0282544980808055 0.0
1.0704977599593786 0.3837160768881349 0.0
1.3142899220242414 0.0029896645488953 0.0
1.3915182522462657 -0.0773494062805485 0.0
1.4273773065246296 -0.1660868808553164 0.0
1.2296844008547958 -0.0952012197176325 0.0
1.3254034679966151 -0.0831896075167097 0.0
1.5128963867440468 -0.1113810594525048 0.0
1.5781487199479389 -0.0280161666402994 0.0
1.5262492351673556 0.0188807540538059 0.0
1.5812332884129612 0.0943312035694499 0.0
1.5073551856450536 -0.1201149963885234 0.0
1.2070255685841167 0.0003711108773973 0.0
1.3326227682693252 -0.0996539724940244 0.0
1.2309134820950074 0.2118765797298362 0.0
1.5814931627883628 0.0708256744130943 0.0
1.5602724846007401 0.0113976034567085 0.0
1.1790736835041382 -0.0535579069470513 0.0
1.2713536377849717 -0.0329958468164612 0.0
1.1699381508129534 -0.0459242124758847 0.0
1.5281098188573556 -0.0557525280508891 0.0
1.5807147311755094 0.0534727380908009 0.0
1.1847545224880218 0.0863820368906250 0.0
1.1546412007045226 -0.2288281931644653 0.0
1.4965325332711568 0.0152794552618293 0.0
1.4967487604226439 -0.0180680468579529 0.0
1.5261838364221934 0.0354309491665162 0.0
1.5481456045800639 0.0133128840216632 0.0
1.3237573737397248 -0.1213064047092985 0.0
1.4875934476260644 0.0092066667122014 0.0
1.6542522064865826 0.0252470974577451 0.0
1.3552667166731394 0.1300566424795696 0.0
1.3779728595150984 -0.0407137771124713 0.0
1.3787385929259293 -0.0473145573471699 0.0
1.3234369616519421 -0.1452233367681622 0.0
1.5051649356025616 0.0927420114642330 0.0
1.5124854968939034 0.0019615754213957 0.0
1.6251305417250657 -0.1057558174146287 0.0
1.6830221279370725 -0.0384879372051000 0.0
1.2103740712778526 -0.0873606762517402 0.0
1.5894881778175036 -0.0197234721775926 0.0
1.0155041645909020 0.0528813963928391 0.0
0.9032756254021215 0.0266626710186688 0.0
1.3786914887128221 -0.0535868567429825 0.0
0.9243923836403984 0.0158063983658418 0.0
0.9069732856816198 -0.0500402953949761 0.0
1.0302130693845077 0.0341059223176110 0.0
1.2901586388764990 -0.0447478876865292 0.0
1.7996187186147452 -0.1356991907036670 0.0
1.2798439457295487 0.0003650455046781 0.0
1.0041584078134000 -0.0666947736009513 0.0
1.4045745478526208 -0.0949465913095943 0.0
1.3654892606167048 0.0397164740845696 0.0
1.3252112533171156 0.0023920122257692 0.0
1.2230130890351962 -0.0210952423773438 0.0
1.0767823013581308 -0.0546457116741397 0.0
1.0951857924013344 0.0097579698985073 0.0
1.2516674640083514 0.0223525638896286 0.0
1.4488346588300569 -0.0624330042902116 0.0
1.2294169610882273 -0.0279449276888695 0.0
1.2066192161520006 -0.2049275874966424 0.0
1.1320926651635645 0.3298906950128719 0.0
1.0957104236555155 0.1891998012142496 0.0
1.3933699649914957 -0.0677327058412290 0.0
1.2832149867960190 0.0809025823026497 0.0
1.4010144414117809 0.0549619037156601 0.0
1.2315994912700241 0.0209877526414949 0.0
1.7382583425868798 0.0678083157970749 0.0
1.4817146393883927 -0.0086581905347693 0.0
1.3411088639680699 -0.0526108592936548 0.0
0.9443382288633277 0.0005284963597404 0.0
1.1069473893042094 -0.0180744448174142 0.0
1.6045821979719568 -0.1330569364601294 0.0
1.3098407815061519 0.0495426637927830 0.0
1.4469327296582226 0.0708752278878037 0.0
1.3510572178585023 -0.0450316513002384 0.0
1.2430687283932200 -0.0432745510455127 0.0
1.5366427918056067 -0.0421935399656636 0.0
1.6082006832416902 0.0407792516990631 0.0
1.3377992509983405 0.0136715206908380 0.0
1.3794740912251473 -0.0840230931559505 0.0
1.0855305420438410 -0.0875674361393157 0.0
0.9932146215007671 -0.0112820764475837 0.0
1.4835558807942602 -0.1658800110108102 0.0
1.2377868663155049 -0.0992020928257527 0.0
1.5841832020766573 0.0134343179472166 0.0
0.6339374768348156 0.0275163778806457 0.0
0.8932512937213276 0.0930136302346172 0.0
1.6626147026391591 0.0135052075814894 0.0
1.2467680528250800 -0.0068035527541138 0.0
0.9104379819078827 0.0165590149660603 0.0
1.3014179226875733 -0.0873803120100447 0.0
1.1945773185852817 0.0055751588528420 0.0
1.1168257120647340 -0.2734888554970397 0.0
0.8498757996013930 0.0371413522190582 0.0
1.5928080145096508 0.0111559032096549 0.0
1.6634262948712057 -0.0096033693754532 0.0
0.8754251220585585 0.0883759343667425 0.0
1.6064104880319614 0.0560089233270771 0.0
1.0917434753641733 -0.1932868392926133 0.0
1.2230439046544073 0.0328784442389126 0.0
1.1059691230077786 -0.0402411553527097 0.0
1.2313168486764512 0.0156810506978818 0.0
1.6691767427641009 -0.0221355965158716 0.0
1.4215185083306783 -0.2080537462277049 0.0
1.4461903484926724 0.0446449194228744 0.0
1.4489555744798168 0.0881263101885644 0.0
1.3469322050031438 -0.0511310023217271 0.0
0.7461087006506193 -0.0904924207218759 0.0
1.4019840101631269 -0.1464876748969846 0.0
0.6612280463062891 -0.0059590384319409 0.0
1.2507406106233927 -0.0679115053747043 0.0
1.0474483713800966 0.0230055026037523 0.0
1.2345555216250876 -0.0207511275891029 0.0
1.1684546030351566 0.2309493666960873 0.0
1.2564134092443022 0.0869625499150020 0.0
0.7545587586390350 0.0061023262374212 0.0
1.2283036709617674 -0.0742439578016742 0.0
0.7089081925647279 0.0036115645295292 0.0
1.6544923592572223 0.0019754123037182 0.0
1.0154191310291922 0.0772431800963154 0.0
1.3307933634541524 -0.1152760246435015 0.0
1.1377469715106314 0.0012830562137889 0.0
1.4787774326907666 -0.1409817219380434 0.0
0.5861508661759558 -0.0438711333159098 0.0
1.1796934782289876 -0.0783702987335840 0.0
1.2042029789393378 -0.1039840078872676 0.0
1.2833528089116630 -0.1005069530583905 0.0
1.6352460426357875 -0.0139693665205330 0.0
1.6033916134165926 0.0498268866301195 0.0
0.9270018438150029 0.0642150385306536 0.0
1.2420233726710612 -0.0439293040199205 0.0
0.7577289441833273 0.1013764182302116 0.0
0.5968099593051477 -0.0029312891518206 0.0
0.4695197753120223 0.0245081435406051 0.0
1.3878384970875788 -0.0872643880793785 0.0
0.5992177566133607 0.1635820549891448 0.0
0.7037247259839908 -0.0061759480185438 0.0
1.5516016960047863 0.0233189751163585 0.0
1.2959424782572249 -0.0565180653934806 0.0
1.2099076738424155 -0.0392219585777602 0.0
1.5654323102553724 0.0661465281620753 0.0
1.3726558792571542 -0.0658713141124016 0.0
1.5710727581222586 0.0294268681118560 0.0
1.1818459032594641 0.0560619160935721 0.0
1.1188029712654255 -0.2426709034342935 0.0
1.2048406157880978 0.1614828391052478 0.0
1.1088274134697227 0.2294756251429585 0.0
1.0737596566060075 -0.0463716770734554 0.0
1.1845494296503258 0.0254596237950251 0.0
0.9319545917360229 0.0420347235088835 0.0
0.6107693128527962 0.1450986206701799 0.0
0.9917206812526903 -0.0117088961785150 0.0
1.3527635354642782 -0.0360465827894102 0.0
0.7666068162730447 0.0676394577659585 0.0
1.2148402789855433 0.0479547278813042 0.0
1.3959696274279974 -0.0594128586057881 0.0
0.9070535048630399 -0.0164544391072335 0.0
1.2625396813323078 0.0319362522101542 0.0
1.5219016524251745 0.0496490701035374 0.0
1.1964386262557785 -0.1646613501925619 0.0
1.3049544477765911 -0.1007225876235221 0.0
0.5563726700672950 0.1417011760457319 0.0
0.5559170650826504 0.1133486784912392 0.0
0.8403696601081739 -0.0132989839809077 0.0
1.4632235105634022 -0.0832692471835211 0.0
1.3956773571005108 -0.0739401226289181 0.0
0.5846868099544156 0.1627842025849050 0.0
0.7076487389255212 -0.0539107545054748 0.0
1.1210375636937002 0.0208021338543497 0.0
1.4467008077334342 -0.1027775092505515 0.0
0.9840244375669210 -0.0129420400109181 0.0
1.2706104243216336 0.0109301678803289 0.0
1.3560913720028569 -0.0759615423472863 0.0
0.9640827480300040 0.0082846510350213 0.0
0.8737635534546301 0.0708193135538562 0.0
1.3263730356574555 -0.0007933965053185 0.0
0.7711907187545333 -0.0264130919346749 0.0
1.5628509547257794 -0.0255900772407913 0.0
0.7674139493899943 0.0218004483752196 0.0
0.7740484879400332 -0.0293959830814121 0.0
1.2859064107497453 -0.0746023268196501 0.0
1.3544224150289950 -0.0122560930049447 0.0
0.9917093346546272 0.0105499986442055 0.0
0.6275977881437589 0.1843601011273109 0.0
0.9116046395472049 -0.0046365399379057 0.0
1.1764598368183745 -0.0462755641500621 0.0
0.8205128232176392 0.0916792897022923 0.0
1.1839769309670105 0.1303760722859200 0.0
1.1159832973176775 -0.0282214930451458 0.0
0.6812883659682676 0.0183349007419853 0.0
1.5158951548477688 -0.0202978762654221 0.0
0.9059853572520192 -0.0118938379247756 0.0
1.5397572402516291 -0.0243613998961603 0.0
0.4572993682067071 -0.0363026442701325 0.0
1.4269014395943627 -0.1637010871895279 0.0
1.5894386075074138 -0.0127301289896977 0.0
0.5825552873237860 0.1150799437159557 0.0
0.7802878292229710 -0.0247040135965727 0.0
1.5811673133734705 0.0687501354022621 0.0
0.9371038318824666 0.0896250128727498 0.0
1.5593023932936125 0.0558508017167074 0.0
1.0286216152841945 -0.0232464501085578 0.0
0.8018571761994959 -0.0588690056845451 0.0
0.6872057187526276 -0.0300738165408641 0.0
1.0189724301496292 -0.0257096643611798 0.0
1.0021876311336926 0.0297085912053898 0.0
1.4560330204330829 0.0135171719163450 0.0
0.5614801299612195 0.0370292372787213 0.0
0.8805922527007698 -0.0612477974937664 0.0
0.8515840213915638 0.0511181870730481 0.0
1.4235894470488497 0.0783466214342019 0.0
0.8027747716649205 -0.1987279292513966 0.0
0.8293693358270358 -0.0262130065276050 0.0
0.5263988875032170 -0.0484019181715867 0.0
1.0789059889767492 0.0141229882040591 0.0
0.7238318585618460 0.1904199800915417 0.0
0.9021419666607913 0.0435377761933083 0.0
1.2648950936095953 -0.1245815041625404 0.0
0.7652772706548953 -0.0182473967411036 0.0
0.9016385913251113 -0.0018179592113112 0.0
1.0313831002018912 -0.0180022480735070 0.0
0.7920926997290727 -0.0302782900847985 0.0
0.7683060138058625 -0.0450289052652440 0.0
1.4864844047494854 0.0263987341690565 0.0
0.8011695271748571 -0.0319226375739363 0.0
1.0380799206366511 -0.0717147925478419 0.0
0.8396071174469664 0.0547536253307517 0.0
1.3003008218491974 -0.0445026771690846 0.0
0.6376700798520603 -0.0175550811807670 0.0
0.4219663008699189 0.0067994490088177 0.0
1.1747284316315878 -0.0797451281261650 0.0
0.8366065391324203 0.1018725762730765 0.0
0.7949197293164691 -0.0165247380927152 0.0
0.9593381341873226 0.0564767578991939 0.0
1.3050365128404335 -0.0266970305347118 0.0
0.6573078426350664 -0.0204532314586142 0.0
1.2136447574488538 0.1871045117839590 0.0
1.4969962612729593 0.0049371310152112 0.0
0.7108896638059463 -0.0125766240885109 0.0
1.1424572573557401 0.0044869233757912 0.0
1.2605325464319685 -0.0571420240134569 0.0
1.1137823257286372 -0.0477671587713451 0.0
1.3936966225289511 -0.1165841315400338 0.0
0.4885690529572542 0.2051897056709803 0.0
1.7290376395854952 0.0211984240239445 0.0
1.3175661858846137 0.0277153377645095 0.0
0.5631387882988255 0.0508604145133048 0.0
1.4277542980829725 -0.1377610491611166 0.0
1.5026361789029785 -0.0912795062816583 0.0
0.6415520560481014 -0.0069154314106815 0.0
1.0238750989563310 -0.0100635995620822 0.0
0.6727723069393168 -0.0389070617329817 0.0
0.9514084283897971 -0.0773963319839561 0.0
0.7843872876650229 -0.0532614196602490 0.0
0.4187642952177940 0.2093419834660502 0.0
1.1348894285036397 0.2289338135496206 0.0
1.5952010825486564 0.0102489569871580 0.0
0.5883762915209870 0.2160963269202413 0.0
1.5760665261413993 -0.0613218066993606 0.0
1.7457428006903213 0.0976714945601355 0.0
0.5573845894179433 0.2061703801029823 0.0
1.4820670766325326 0.0449013555809162 0.0
1.4109405083584428 -0.1399277458198723 0.0
0.9261535828399322 0.2488416281136404 0.0
1.2913435006900402 -0.0197196933460012 0.0
1.3199781465101783 0.0201487609277905 0.0
0.7802460123402897 0.0898923281598309 0.0
1.3392417419851281 -0.1124002351274545 0.0
0.6996218709902826 -0.0565411149532214 0.0
0.6033408187511220 0.1906823464923933 0.0
0.4232043472370250 0.0227054350375807 0.0
1.2185896434240360 -0.0267840322740274 0.0
0.8853778703470431 -0.2749110986668309 0.0
1.4165499890878843 0.1004009196491607 0.0
1.2958530399460071 -0.1058131961400304 0.0
0.5622057915066118 -0.0115736935234214 0.0
0.5837983135410273 0.0482693665732045 0.0
0.7000048246758085 0.0179576839471344 0.0
1.1411640009388009 0.0092092494867085 0.0
1.2028032359330330 0.2844451078992961 0.0
0.5673266953466998 -0.0339250926956747 0.0
1.1456671651636918 -0.0545150306505058 0.0
0.5935498168338320 0.0408465753637692 0.0
1.5699566750431249 0.0400450216426892 0.0
0.4670457488557493 0.2450579409487181 0.0
0.7449284208436329 -0.1213693501405134 0.0
1.5399665020031994 -0.0446956767436581 0.0
1.2552879305050737 0.0368585181972253 0.0
1.5098207169558666 -0.1354645952485920 0.0
0.6843592517949381 0.0059436733179440 0.0
0.8712147463737239 -0.0341052473986219 0.0
1.4558083644583457 -0.1037959505721818 0.0
1.3714751149125031 -0.0748787234753066 0.0
1.0229642070710077 0.0629345852006365 0.0
1.4480471093614506 0.0369830437131138 0.0
1.3222524379784790 -0.0723430650420439 0.0
1.2631885948839405 0.1380275094955355 0.0
0.8766999616333928 -0.0077055996342298 0.0
0.7435152145594287 -0.0213057666894779 0.0
0.6753924061116808 -0.0462445121535428 0.0
1.3163778909738408 -0.0708543732326062 0.0
1.3155250174509654 -0.0575452508767010 0.0
1.1290272942888533 0.1145529121273126 0.0
0.3521948756558102 0.0300564380681936 0.0
1.4367779009255175 -0.0941321525640307 0.0
0.3141722959570522 0.1118232753450690 0.0
0.6907938488269344 0.1211897872335071 0.0
1.0867794607873142 0.0285983764961370 0.0
0.5388317459246734 -0.1148220676692289 0.0
1.1467231260925084 -0.3143285953802553 0.0
1.3684568538456157 -0.0716288668343867 0.0
1.6094438267503020 -0.0184403755931186 0.0
0.7311673183830455 0.1117815519587986 0.0
1.5220525322569591 -0.0614558319625133 0.0
0.9297161210988446 -0.0331076658088794 0.0
1.3793275259806239 -0.0600265345353083 0.0
0.9320222746699884 -0.0256806173457367 0.0
0.5048275499573189 0.2034678761712414 0.0
0.9087363243182885 -0.0549733713255056 0.0
1.0269422882344887 -0.0642109619846293 0.0
1.5666968519309994 -0.0465822593689564 0.0