# vtk DataFile Version 3.0
LucasCarvalhoTCC Results
ASCII

DATASET POLYDATA
FIELD FieldData 1
TIME 1 1 double
1.6

POINTS 600 float
0.0 2.0 0.0
0.25 1.989125 0.0
0.5 1.958 0.0
0.75 1.908875 0.0
1.0 1.844 0.0
1.25 1.765625 0.0
1.5 1.676 0.0
1.75 1.577375 0.0
2.0 1.472 0.0
2.25 1.362125 0.0
2.5 1.25 0.0
2.75 1.137875 0.0
3.0 1.028 0.0
3.25 0.922625 0.0
3.5 0.8240000000000001 0.0
3.75 0.734375 0.0
4.0 0.6560000000000001 0.0
4.25 0.5911249999999999 0.0
4.5 0.542 0.0
4.75 0.510875 0.0
5.0 0.5 0.0
5.25 0.5036250000000004 0.0
5.5 0.5140000000000002 0.0
5.75 0.5303750000000003 0.0
6.0 0.5519999999999996 0.0
6.25 0.578125 0.0
6.5 0.6080000000000005 0.0
6.75 0.6408749999999999 0.0
7.0 0.6760000000000002 0.0
7.25 0.7126249999999992 0.0
7.5 0.75 0.0
7.75 0.7873750000000004 0.0
8.0 0.8239999999999994 0.0
8.25 0.8591250000000001 0.0
8.5 0.8919999999999999 0.0
8.75 0.921875 0.0
9.0 0.9479999999999991 0.0
9.25 0.9696250000000011 0.0
9.5 0.9859999999999984 0.0
9.75 0.9963750000000013 0.0
10.0 1.0 0.0
0.0 0.0 0.0
10.0 0.0 0.0
0.124999999999674 1.994562500000014 0.0
0.3749999999999947 1.973562500000001 0.0
0.6249999999999918 1.933437500000002 0.0
0.874999999999979 1.876437500000006 0.0
1.124999999999963 1.804812500000012 0.0
1.374999999999944 1.72081250000002 0.0
1.624999999999985 1.626687500000006 0.0
1.874999999999953 1.52468750000002 0.0
2.124999999999936 1.417062500000028 0.0
2.374999999999952 1.306062500000022 0.0
2.624999999999919 1.193937500000036 0.0
2.87499999999992 1.082937500000035 0.0
3.124999999999946 0.9753125000000229 0.0
3.374999999999948 0.8733125000000204 0.0
3.624999999999972 0.77918750000001 0.0
3.874999999999963 0.6951875000000118 0.0
4.124999999999968 0.6235625000000082 0.0
4.394409538298571 0.5627485257243309 0.0
4.583333333333322 0.5316250000000015 0.0
4.666666666666668 0.5212499999999999 0.0
4.833333333333334 0.50725 0.0
4.916666666666667 0.503625 0.0
5.083333333333334 0.5012083333333335 0.0
5.166666666666666 0.502416666666667 0.0
5.333333333333334 0.5070833333333337 0.0
5.416666666666667 0.510541666666667 0.0
5.583333333333334 0.5194583333333336 0.0
5.666666666666666 0.5249166666666669 0.0
5.833333333333338 0.5375833333333339 0.0
5.916666666666661 0.544791666666666 0.0
6.105781577147724 0.5630541748119369 0.0
6.375 0.5930625000000003 0.0
6.624999999999988 0.6244374999999988 0.0
6.874999999999994 0.6584374999999991 0.0
7.125 0.6943124999999997 0.0
7.375 0.7313124999999996 0.0
7.624999999999994 0.7686874999999992 0.0
7.875 0.8056874999999999 0.0
8.125 0.8415624999999998 0.0
8.374999999999991 0.8755624999999989 0.0
8.624999999999995 0.9069374999999993 0.0
8.874999999999995 0.9349374999999991 0.0
9.125 0.9588125000000001 0.0
9.375 0.9778124999999998 0.0
9.625 0.9911874999999999 0.0
9.875 0.9981875000000007 0.0
0.0 1.799999999999167 0.0
0.0 1.6 0.0
0.0 1.400000000001387 0.0
0.0 1.200000000002774 0.0
0.0 1.000000000004117 0.0
0.0 0.8000000000033287 0.0
0.0 0.6000000000024965 0.0
0.0 0.4000000000016644 0.0
0.0 0.200000000000832 0.0
0.199999999999856 0.0 0.0
0.3999999999996677 0.0 0.0
0.5999999999994683 0.0 0.0
0.7999999999993286 0.0 0.0
0.9999999999991888 0.0 0.0
1.199999999999033 0.0 0.0
1.399999999998576 0.0 0.0
1.599999999997992 0.0 0.0
1.799999999997408 0.0 0.0
1.999999999996825 0.0 0.0
2.199999999996241 0.0 0.0
2.399999999995657 0.0 0.0
2.599999999995073 0.0 0.0
2.79999999999449 0.0 0.0
2.999999999993906 0.0 0.0
3.199999999993322 0.0 0.0
3.399999999992738 0.0 0.0
3.599999999992154 0.0 0.0
3.799999999991571 0.0 0.0
3.999999999991022 0.0 0.0
4.199999999991187 0.0 0.0
4.399999999991491 0.0 0.0
4.599999999991795 0.0 0.0
4.799999999992099 0.0 0.0
4.999999999992403 0.0 0.0
5.199999999992706 0.0 0.0
5.39999999999301 0.0 0.0
5.599999999993313 0.0 0.0
5.799999999993618 0.0 0.0
5.999999999993922 0.0 0.0
6.199999999994227 0.0 0.0
6.39999999999453 0.0 0.0
6.599999999994833 0.0 0.0
6.799999999995138 0.0 0.0
6.999999999995442 0.0 0.0
7.199999999995747 0.0 0.0
7.39999999999605 0.0 0.0
7.599999999996353 0.0 0.0
7.799999999996658 0.0 0.0
7.999999999996962 0.0 0.0
8.199999999997265 0.0 0.0
8.399999999997569 0.0 0.0
8.599999999997873 0.0 0.0
8.799999999998176 0.0 0.0
8.99999999999848 0.0 0.0
9.199999999998786 0.0 0.0
9.399999999999089 0.0 0.0
9.599999999999392 0.0 0.0
9.799999999999697 0.0 0.0
10.0 0.1999999999995579 0.0
10.0 0.3999999999989749 0.0
10.0 0.5999999999989468 0.0
10.0 0.7999999999994734 0.0
0.913963423524136 0.9126937851647636 0.0
1.629657910441747 0.8286436141773268 0.0
2.300136613917738 0.6369890708869279 0.0
0.5989085226155619 1.38125543468559 0.0
1.274155622640533 1.242773398230304 0.0
2.860215383945273 0.5217401976756945 0.0
9.469653920408135 0.4910067017840992 0.0
8.984679546317787 0.4696119782494839 0.0
8.499397693277212 0.4463630640980716 0.0
3.270918412356206 0.4522692359356972 0.0
1.223039611612243 0.5146439900227544 0.0
2.024812732135938 1.00818256045515 0.0
0.5365376864627701 0.5434316309416508 0.0
8.114834335444021 0.4602948767329583 0.0
7.742261962994204 0.4117304941858466 0.0
0.9443382341364558 1.456061359265878 0.0
1.665275621558886 1.201744468407863 0.0
1.89566112584099 0.4397284596316843 0.0
3.691409759982064 0.3560936332572802 0.0
7.368457390036411 0.3792926046732459 0.0
0.5071184951703254 0.9340893429149442 0.0
0.3822273842356539 1.647625881691675 0.0
5.916285335387544 0.2564903116750689 0.0
5.628860531758535 0.2582323053999509 0.0
5.380471017960128 0.2502349014663197 0.0
5.139244585769944 0.2549145445969738 0.0
2.686085237972266 0.8031095648160084 0.0
4.507599040026292 0.263176944655695 0.0
6.983755234374982 0.3380000000001097 0.0
9.720925955181613 0.6635813325201156 0.0
1.288006195687152 0.8759679848503046 0.0
9.20556379558699 0.6923669083350594 0.0
2.319913492084225 0.9512500928262699 0.0
8.73203612228155 0.6151508464420534 0.0
4.868679481352366 0.2526598053940744 0.0
4.10358044398202 0.3012437332986487 0.0
6.602422946953217 0.3126221952225479 0.0
2.534693527909069 0.3583319619586092 0.0
6.193332317503376 0.2894654215336858 0.0
0.8804088217382579 0.3735513844182569 0.0
0.7663303172393539 1.679065267574722 0.0
3.081211528283084 0.6968015573146217 0.0
1.241762689885858 1.521465072418641 0.0
1.573472750763779 0.3374689934575129 0.0
1.475107933015155 1.403918544935278 0.0
0.8212739503602162 1.195790902469637 0.0
4.681049549092561 0.3558177014380842 0.0
9.439519900118443 0.7366884444350511 0.0
2.201393787062887 0.3261463175998884 0.0
2.015369189818184 0.7109460688851087 0.0
8.32727069655695 0.6360373328685593 0.0
8.961488632119996 0.7119124617705204 0.0
9.22773266034565 0.3109430611770705 0.0
0.3000513553073295 1.178778127105867 0.0
1.91985473842554 1.233084801189704 0.0
8.749827252515535 0.3049638092131281 0.0
3.50551132590258 0.5576614504134195 0.0
3.040500962406976 0.290446660105673 0.0
9.72097519930939 0.3037986529514364 0.0
0.3073166349239687 0.3249300260882615 0.0
0.2948185331392187 0.7229775107826154 0.0
1.46029425821417 1.06552904833304 0.0
0.8085718129253527 0.673531272847494 0.0
7.913326191751847 0.5738936378911789 0.0
8.295349499871781 0.2556682497524391 0.0
4.31359646688283 0.3665214152100782 0.0
7.542842082022704 0.5249918217576657 0.0
1.058357552227335 1.116692590939024 0.0
2.214297272750292 1.159898327391242 0.0
2.901187336648686 0.8282146771898153 0.0
3.933498145061447 0.4325241689837319 0.0
7.956006969037984 0.2667411694088205 0.0
7.172393179434975 0.4835114022190097 0.0
1.440243631802057 0.6689433452646625 0.0
3.458541882144431 0.2581755850286561 0.0
5.791617360065465 0.3978542524532168 0.0
5.981529865241493 0.3900667299390458 0.0
1.083462543944253 0.7203994120564634 0.0
1.78518471978951 1.008552691762234 0.0
2.77360122246243 0.2689852172070111 0.0
2.565134389978369 0.9928826788184764 0.0
2.543046005790158 0.6034091352176242 0.0
3.293038780485421 0.6769811703257343 0.0
6.790787388653942 0.4353933509634578 0.0
1.140204059461831 0.2538227257007896 0.0
0.6242104065654487 0.2738473600765566 0.0
6.393430278703709 0.3766405270445946 0.0
8.533059390324546 0.6950580701614406 0.0
0.9961263693263854 1.612128843772703 0.0
1.697598586607002 0.5781950992180334 0.0
8.087930458724863 0.6517815437732153 0.0
0.2748906317360928 1.770749713716887 0.0
0.5785110002099415 1.757022387413085 0.0
5.550004842562332 0.3852675728674634 0.0
4.948161884155141 0.3480305424737933 0.0
1.741244734175577 1.381979611033466 0.0
5.312408927381063 0.3621256994047111 0.0
0.2492139438157334 1.453132031680879 0.0
7.597720022451821 0.2370268512906596 0.0
9.471021754366422 0.2472916581956264 0.0
7.714083843672875 0.600212897672991 0.0
4.520815862079482 0.3946753115680038 0.0
2.47356661122767 0.8007389356831706 0.0
7.325494311403363 0.528948935030723 0.0
7.147005275585743 0.2709670165999667 0.0
3.758046446289313 0.5474783841545341 0.0
3.893717059615281 0.1664960777568404 0.0
2.152835534199412 0.8614028741175742 0.0
8.995993312441625 0.1933410497113667 0.0
1.077676137392001 1.368204555688504 0.0
0.2429906229817933 0.9816066505657851 0.0
0.6261765586985547 1.180540007244081 0.0
9.81151801018651 0.816223424030724 0.0
0.6725442903064565 0.8425384371773644 0.0
1.74584086891446 0.2617492458514414 0.0
0.7667820686164357 1.440842670056678 0.0
8.539133693395232 0.1910926418035274 0.0
5.129145653242096 0.3632579123815574 0.0
6.816538849831732 0.2013284992826486 0.0
2.108503954619862 0.5359795950847274 0.0
6.933669557130528 0.4980836483776163 0.0
3.071406705674529 0.4919421055852253 0.0
2.001240035874449 0.2292738462614773 0.0
4.782473531509697 0.4061213127162872 0.0
0.5734126310178208 1.536352720889636 0.0
9.796714529589472 0.4898048068674991 0.0
5.678359041645315 0.373719883316694 0.0
5.427661572827738 0.3646059266294788 0.0
2.075214597532947 1.226969224366912 0.0
3.251521478555126 0.2637671977660283 0.0
2.722180837291864 0.9710783334409533 0.0
9.333262390342384 0.8479609887828539 0.0
1.367251332770493 0.2041553944563636 0.0
1.870721433742522 0.7905989208842599 0.0
1.387906762913351 1.555741687747287 0.0
9.559918612869 0.8444052974080497 0.0
9.286795039366257 0.4698254290795815 0.0
1.507117480770146 1.225129516597721 0.0
[...]
POINT_DATA 600

VECTORS Velocity float
0.0000000000000000 0.0000000000000000 0.0
0.0000000000000000 0.0000000000000000 0.0
0.0000000000000000 0.0000000000000000 0.0
0.0000000000000000 0.0000000000000000 0.0
0.0000000000000000 0.0000000000000000 0.0
0.0000000000000000 0.0000000000000000 0.0
0.0000000000000000 0.0000000000000000 0.0
0.0000000000000000 0.0000000000000000 0.0
0.0000000000000000 0.0000000000000000 0.0
0.0000000000000000 0.0000000000000000 0.0
0.0000000000000000 0.0000000000000000 0.0
0.0000000000000000 0.0000000000000000 0.0
0.0000000000000000 0.0000000000000000 0.0
0.0000000000000000 0.0000000000000000 0.0
0.0000000000000000 0.0000000000000000 0.0
0.0000000000000000 0.0000000000000000 0.0
0.0000000000000000 0.0000000000000000 0.0
0.0000000000000000 0.0000000000000000 0.0
0.0000000000000000 0.0000000000000000 0.0
0.0000000000000000 0.0000000000000000 0.0
0.0000000000000000 0.0000000000000000 0.0
0.0000000000000000 0.0000000000000000 0.0
0.0000000000000000 0.0000000000000000 0.0
0.0000000000000000 0.0000000000000000 0.0
0.0000000000000000 0.0000000000000000 0.0
0.0000000000000000 0.0000000000000000 0.0
0.0000000000000000 0.0000000000000000 0.0
0.0000000000000000 0.0000000000000000 0.0
0.0000000000000000 0.0000000000000000 0.0
0.0000000000000000 0.0000000000000000 0.0
0.0000000000000000 0.0000000000000000 0.0
0.0000000000000000 0.0000000000000000 0.0
0.0000000000000000 0.0000000000000000 0.0
0.0000000000000000 0.0000000000000000 0.0
0.0000000000000000 0.0000000000000000 0.0
0.0000000000000000 0.0000000000000000 0.0
0.0000000000000000 0.0000000000000000 0.0
0.0000000000000000 0.0000000000000000 0.0
0.0000000000000000 0.0000000000000000 0.0
0.0000000000000000 0.0000000000000000 0.0
0.0000000000000000 0.0000000000000000 0.0
0.0000000000000000 0.0000000000000000 0.0
0.8251812945888672 -0.1307046897988574 0.0
0.0000000000000000 0.0000000000000000 0.0
0.0000000000000000 0.0000000000000000 0.0
0.0000000000000000 0.0000000000000000 0.0
0.0000000000000000 0.0000000000000000 0.0
0.0000000000000000 0.0000000000000000 0.0
0.0000000000000000 0.0000000000000000 0.0
0.0000000000000000 0.0000000000000000 0.0
0.0000000000000000 0.0000000000000000 0.0
0.0000000000000000 0.0000000000000000 0.0
0.0000000000000000 0.0000000000000000 0.0
0.0000000000000000 0.0000000000000000 0.0
0.0000000000000000 0.0000000000000000 0.0
0.0000000000000000 0.0000000000000000 0.0
0.0000000000000000 0.0000000000000000 0.0
0.0000000000000000 0.0000000000000000 0.0
0.0000000000000000 0.0000000000000000 0.0
0.0000000000000000 0.0000000000000000 0.0
0.0000000000000000 0.0000000000000000 0.0
0.0000000000000000 0.0000000000000000 0.0
0.0000000000000000 0.0000000000000000 0.0
0.0000000000000000 0.0000000000000000 0.0
0.0000000000000000 0.0000000000000000 0.0
0.0000000000000000 0.0000000000000000 0.0
0.0000000000000000 0.0000000000000000 0.0
0.0000000000000000 0.0000000000000000 0.0
0.0000000000000000 0.0000000000000000 0.0
0.0000000000000000 0.0000000000000000 0.0
0.0000000000000000 0.0000000000000000 0.0
0.0000000000000000 0.0000000000000000 0.0
0.0000000000000000 0.0000000000000000 0.0
0.0000000000000000 0.0000000000000000 0.0
0.0000000000000000 0.0000000000000000 0.0
0.0000000000000000 0.0000000000000000 0.0
0.0000000000000000 0.0000000000000000 0.0
0.0000000000000000 0.0000000000000000 0.0
0.0000000000000000 0.0000000000000000 0.0
0.0000000000000000 0.0000000000000000 0.0
0.0000000000000000 0.0000000000000000 0.0
0.0000000000000000 0.0000000000000000 0.0
0.0000000000000000 0.0000000000000000 0.0
0.0000000000000000 0.0000000000000000 0.0
0.0000000000000000 0.0000000000000000 0.0
0.0000000000000000 0.0000000000000000 0.0
0.0000000000000000 0.0000000000000000 0.0
0.0000000000000000 0.0000000000000000 0.0
0.0000000000000000 0.0000000000000000 0.0
1.0000000000000000 0.0000000000000000 0.0
1.0000000000000000 0.0000000000000000 0.0
1.0000000000000000 0.0000000000000000 0.0
1.0000000000000000 0.0000000000000000 0.0
1.0000000000000000 0.0000000000000000 0.0
1.0000000000000000 0.0000000000000000 0.0
1.0000000000000000 0.0000000000000000 0.0
1.0000000000000000 0.0000000000000000 0.0
1.0000000000000000 0.0000000000000000 0.0
0.0000000000000000 0.0000000000000000 0.0
0.0000000000000000 0.0000000000000000 0.0
0.0000000000000000 0.0000000000000000 0.0
0.0000000000000000 0.0000000000000000 0.0
0.0000000000000000 0.0000000000000000 0.0
0.0000000000000000 0.0000000000000000 0.0
0.0000000000000000 0.0000000000000000 0.0
0.0000000000000000 0.0000000000000000 0.0
0.0000000000000000 0.0000000000000000 0.0
0.0000000000000000 0.0000000000000000 0.0
0.0000000000000000 0.0000000000000000 0.0
0.0000000000000000 0.0000000000000000 0.0
0.0000000000000000 0.0000000000000000 0.0
0.0000000000000000 0.0000000000000000 0.0
0.0000000000000000 0.0000000000000000 0.0
0.0000000000000000 0.0000000000000000 0.0
0.0000000000000000 0.0000000000000000 0.0
0.0000000000000000 0.0000000000000000 0.0
0.0000000000000000 0.0000000000000000 0.0
0.0000000000000000 0.0000000000000000 0.0
0.0000000000000000 0.0000000000000000 0.0
0.0000000000000000 0.0000000000000000 0.0
0.0000000000000000 0.0000000000000000 0.0
0.0000000000000000 0.0000000000000000 0.0
0.0000000000000000 0.0000000000000000 0.0
0.0000000000000000 0.0000000000000000 0.0
0.0000000000000000 0.0000000000000000 0.0
0.0000000000000000 0.0000000000000000 0.0
0.0000000000000000 0.0000000000000000 0.0
0.0000000000000000 0.0000000000000000 0.0
0.0000000000000000 0.0000000000000000 0.0
0.0000000000000000 0.0000000000000000 0.0
0.0000000000000000 0.0000000000000000 0.0
0.0000000000000000 0.0000000000000000 0.0
0.0000000000000000 0.0000000000000000 0.0
0.0000000000000000 0.0000000000000000 0.0
0.0000000000000000 0.0000000000000000 0.0
0.0000000000000000 0.0000000000000000 0.0
0.0000000000000000 0.0000000000000000 0.0
0.0000000000000000 0.0000000000000000 0.0
0.0000000000000000 0.0000000000000000 0.0
0.0000000000000000 0.0000000000000000 0.0
0.0000000000000000 0.0000000000000000 0.0
0.0000000000000000 0.0000000000000000 0.0
0.0000000000000000 0.0000000000000000 0.0
0.0000000000000000 0.0000000000000000 0.0
0.0000000000000000 0.0000000000000000 0.0
0.0000000000000000 0.0000000000000000 0.0
0.0000000000000000 0.0000000000000000 0.0
1.0710508990048659 -0.4578619504909731 0.0
0.9682602541965668 -0.1891049399731772 0.0
0.9831740794919045 -0.0271660740478855 0.0
1.0708475707195559 0.3800573020156399 0.0
1.2797725274117400 0.0029710130760361 0.0
1.3483233239828367 -0.0685243964984381 0.0
1.3979127951300598 -0.1518938442144374 0.0
1.2212817975455175 -0.0824735742778807 0.0
1.3172919409304873 -0.0835889269377331 0.0
1.4940271579955855 -0.1062835104054281 0.0
1.5627320194199521 -0.0260065305209572 0.0
1.5159983300158817 0.0175927831270242 0.0
1.5756449663538121 0.0911262036943080 0.0
1.5017603298550848 -0.1192145657453028 0.0
1.2166685445555467 -0.0013007549665820 0.0
1.3164102832313358 -0.0986820973260757 0.0
1.2260128731818500 0.1926765969073829 0.0
1.5757076510092725 0.0692625191893346 0.0
1.5551089998879593 0.0136737205751597 0.0
1.1938841745334123 -0.0576106696504275 0.0
1.2785644290395850 -0.0409210398501802 0.0
1.1824204858684144 -0.0359496440412809 0.0
1.5282228135522671 -0.0547164284940102 0.0
1.5801905124629025 0.0515872989181036 0.0
1.1663234063974652 0.0811893479805510 0.0
1.1691501715639174 -0.2137616621616683 0.0
1.4975144122559083 0.0163129909131736 0.0
1.4981323177012467 -0.0184186664469374 0.0
1.5274003532399987 0.0351751217712353 0.0
1.5494204224986654 0.0135051447361476 0.0
1.3251099451158141 -0.1258400860482704 0.0
1.4883466230711080 0.0079231498725962 0.0
1.6542034372750827 0.0249449556955197 0.0
1.3487270550090320 0.1274776314992853 0.0
1.3337302712638019 -0.0373718061294241 0.0
1.3758682842656140 -0.0460000125809111 0.0
1.3148647575658474 -0.1462791664443832 0.0
1.4979116866483764 0.0929258625360271 0.0
1.5135750100340581 0.0015018512028584 0.0
1.6254485348015713 -0.1046428729245698 0.0
1.6830265845128949 -0.0392196632469042 0.0
1.2166204321403782 -0.0785567749761010 0.0
1.5897212104358880 -0.0190773683809175 0.0
1.0425710976809781 0.0479666509672027 0.0
0.9366320461389583 0.0190796277516562 0.0
1.3749295953054173 -0.0602849722720495 0.0
0.9593372969884055 0.0023029987850553 0.0
0.9383932252430001 -0.0490110945785461 0.0
1.0608007859017228 0.0221963936222280 0.0
1.2638170974761371 -0.0393796777669869 0.0
1.7978996282608002 -0.1350936159723461 0.0
1.2825275413355244 0.0003378018001708 0.0
1.0224914165840386 -0.0657499197135499 0.0
1.3690437452519701 -0.0846394271783142 0.0
1.3657088758677309 0.0381763037443732 0.0
1.3236783353212993 0.0036752806935039 0.0
1.2291285928155766 -0.0215405671759822 0.0
1.0707825447568402 -0.0417208743614565 0.0
1.1184372947278534 -0.0007853363171975 0.0
1.2544480708760264 0.0204057343112329 0.0
1.4463147020465883 -0.0634405593665095 0.0
1.2313986556741461 -0.0256163190865130 0.0
1.2103188936853038 -0.2001723124445739 0.0
1.1373009304251651 0.3189054009889989 0.0
1.0908560984742268 0.1787495057719383 0.0
1.3590080871645993 -0.0618567942880454 0.0
1.2653610585122825 0.0692973485265038 0.0
1.4016453610950919 0.0562947774123375 0.0
1.2321157819482214 0.0198851967609164 0.0
1.7380682740554727 0.0671666052061167 0.0
1.4785756437335045 -0.0060588019442103 0.0
1.3076977321918049 -0.0468768715035520 0.0
0.9679932245260007 -0.0128073085318810 0.0
1.1179258486003878 -0.0230690399884338 0.0
1.6034269186935297 -0.1321465231130096 0.0
1.3087489886558576 0.0498906197235844 0.0
1.4453559161843015 0.0699802704776577 0.0
1.3233102199307547 -0.0389065837815386 0.0
1.2449170489552199 -0.0425047474370021 0.0
1.5330560588221633 -0.0416323041243482 0.0
1.6062954015677193 0.0411204415663640 0.0
1.3054137814193498 0.0094493113714019 0.0
1.3515413102723495 -0.0798148063347130 0.0
1.0952753341432122 -0.0824311830729022 0.0
1.0116146898977103 -0.0264967086875313 0.0
1.4539368522354343 -0.1538971525468392 0.0
1.2387847147252078 -0.1018091034841667 0.0
1.5833517242574322 0.0132315285385992 0.0
0.6698578308637135 0.0263900690637245 0.0
0.9173303339273693 0.0866119359413825 0.0
1.6625382204623809 0.0138108853544378 0.0
1.2467974755995972 -0.0058037792583583 0.0
0.9453337096677322 0.0057060157689167 0.0
1.2857698791682171 -0.0786255771468824 0.0
1.1986385021424950 0.0058537628096014 0.0
1.1254347258662774 -0.2670098823596994 0.0
0.8791094066380324 0.0369941252316448 0.0
1.5899257406374281 0.0108843016481166 0.0
1.6614115567692593 -0.0100737026553218 0.0
0.9070493252518089 0.0751225980065695 0.0
1.6040284502696898 0.0558334443483961 0.0
1.0914761837849276 -0.1733174605503244 0.0
1.2253042528010929 0.0327058827939634 0.0
1.1156753733861375 -0.0381540520463082 0.0
1.2327985867446696 0.0170161012899446 0.0
1.6672945868755047 -0.0228923296040634 0.0
1.4003133375575179 -0.2010680849424057 0.0
1.4437558288629579 0.0434780959424314 0.0
1.4497084187741129 0.0872758906231381 0.0
1.3448539905436963 -0.0509126986416453 0.0
0.7471924278984841 -0.0900527164568319 0.0
1.3692616831425990 -0.1387514232796845 0.0
0.6691112259835374 -0.0069784069450417 0.0
1.2558337935684338 -0.0719526589196879 0.0
1.0435884304658298 0.0261818120468693 0.0
1.2122220432252486 -0.0148945519579084 0.0
1.1705062763400695 0.2282387856592266 0.0
1.2305932466036136 0.0792779946477101 0.0
0.7873414936630931 0.0100886256914369 0.0
1.2322412567944949 -0.0711370170696558 0.0
0.7133862857167584 0.0029456998335445 0.0
1.6516379811701571 0.0021919793509755 0.0
1.0161915896856100 0.0771475797156480 0.0
1.3189967394069271 -0.1050458030476568 0.0
1.1369684697171256 0.0012468085023881 0.0
1.4688547797417744 -0.1385780555675595 0.0
0.6091712967999460 -0.0442128643608176 0.0
1.1778419928078461 -0.0780480189322181 0.0
1.2149520633555968 -0.0921811145387909 0.0
1.2783070583382292 -0.0977910805462310 0.0
1.6321810894477660 -0.0138811577904130 0.0
1.6012199031360783 0.0491098817392416 0.0
0.9532634711733672 0.0537716225699980 0.0
1.2431016095213909 -0.0427338059042600 0.0
0.7705048612695786 0.0930702629357166 0.0
0.6040713905403529 -0.0028961453972385 0.0
0.4966815895569780 0.0258929789216281 0.0
1.3475501019142098 -0.0779548966281769 0.0
0.6239527843612448 0.1550475679934522 0.0
0.7101500253603220 -0.0066319196141587 0.0
1.5379593439668549 0.0211824021076115 0.0
1.2988827401977137 -0.0580540059200234 0.0
1.2131386500814108 -0.0376173032020736 0.0
1.5604975994466468 0.0633240462211867 0.0
1.3366910592016987 -0.0615130207992180 0.0
1.5700822158429169 0.0298816113904709 0.0
1.1826430043180274 0.0576790482162298 0.0
1.1224488901894480 -0.2321190301586958 0.0
1.1908981091602655 0.1492591592138277 0.0
1.1087918788229318 0.2223637876537159 0.0
1.0736103710585472 -0.0466714424566909 0.0
1.1844628300288533 0.0260351307976580 0.0
0.9321675969807715 0.0411346599034535 0.0
0.6302767375934254 0.1350606553898669 0.0
0.9917344531777329 -0.0117537380623080 0.0
1.3124302342546874 -0.0323105754417904 0.0
0.7680474763461398 0.0679306231388609 0.0
1.2235672766545678 0.0403005358418220 0.0
1.3506485450204788 -0.0532409104870555 0.0
0.9274701821162478 -0.0131801118918843 0.0
1.2628044970133705 0.0325995706425635 0.0
1.5147969060412378 0.0482845097976669 0.0
1.1974268867807782 -0.1449506739282903 0.0
1.2976308308104794 -0.0943607926363626 0.0
0.5806591710355099 0.1334359795783102 0.0
0.5807539309418932 0.1059950665384002 0.0
0.8413904168237678 -0.0127857847557437 0.0
1.4514363716623875 -0.0846755847543019 0.0
1.3553765217429721 -0.0665666205722420 0.0
0.6077222275941500 0.1528826984887248 0.0
0.7224184905896658 -0.0490554273791212 0.0
1.1200458127670372 0.0199536556748207 0.0
1.4274076331610526 -0.0938821952305237 0.0
0.9844225557231042 -0.0114095017517814 0.0
1.2408574212508978 0.0111301844786798 0.0
1.3270603120990963 -0.0659470006520087 0.0
0.9620370361936025 0.0083114165144052 0.0
0.8732228591331532 0.0705557871299937 0.0
1.3259632066138893 -0.0002830919552049 0.0
0.7748283749948318 -0.0266532352409413 0.0
1.5604624558926767 -0.0254137153359290 0.0
0.7696452114212835 0.0215512946758757 0.0
0.7758929702709234 -0.0288000414826798 0.0
1.2751581586838145 -0.0695238473379427 0.0
1.3233985165558875 -0.0128779210475929 0.0
0.9937341125095609 0.0094316745514821 0.0
0.6498094733051669 0.1753817391334997 0.0
0.9098701721410194 -0.0042271241322080 0.0
1.1906986837246938 -0.0411223406832050 0.0
0.8288160508010125 0.0849496674902104 0.0
1.1913865501257748 0.1190943870557335 0.0
1.1397765850607806 -0.0390981285337502 0.0
0.6835190806624154 0.0183429279156915 0.0
1.5035675302485445 -0.0190817571237010 0.0
0.9083564665646426 -0.0114391733872647 0.0
1.5261472144578430 -0.0228351153068494 0.0
0.4820818237208295 -0.0382967565155241 0.0
1.3972077130867553 -0.1563076746146669 0.0
1.5738740786076240 -0.0132982503017154 0.0
0.6082180796175591 0.1120676275322408 0.0
0.7821728558738739 -0.0247502503887566 0.0
1.5749518652715797 0.0692001150135022 0.0
0.9407822035159304 0.0839156221113909 0.0
1.5529620897476333 0.0540910303775494 0.0
1.0591844016279648 -0.0330335231081670 0.0
0.8045253345498833 -0.0577911395834097 0.0
0.7020057382875639 -0.0253954612618344 0.0
1.0162722753794904 -0.0256279931249187 0.0
0.9996484997314383 0.0296258437235144 0.0
1.4577502031232790 0.0129980863996995 0.0
0.5666968115612373 0.0365288504769653 0.0
0.8788103266474968 -0.0605397273374386 0.0
0.8506205982538076 0.0518230029407283 0.0
1.4225365047750671 0.0757774659592741 0.0
0.8044860284946422 -0.1975403107338702 0.0
0.8286115764896208 -0.0262494149128700 0.0
0.5329181400332090 -0.0477396020066791 0.0
1.1063653202741377 0.0039117366060697 0.0
0.7353069202210174 0.1827991906944539 0.0
0.9001709193162198 0.0432491720968225 0.0
1.2626336315244961 -0.1283431743151626 0.0
0.7690191851489399 -0.0174931421256234 0.0
0.9025369755717894 -0.0020258477667437 0.0
1.0602726290481961 -0.0257966522536742 0.0
0.7926164584467504 -0.0288598570592466 0.0
0.7673445160665472 -0.0455880249785725 0.0
1.4766624652468707 0.0281164681960505 0.0
0.8029439728170420 -0.0318120728859146 0.0
1.0368324522081012 -0.0630079270228589 0.0
0.8397008503079934 0.0547275077925085 0.0
1.3017109464611742 -0.0528893919236802 0.0
0.6445132203512051 -0.0159242569652494 0.0
0.4461125263807653 0.0078205526402005 0.0
1.1622669126556384 -0.0640137898392962 0.0
0.8377623905833365 0.0999510433826378 0.0
0.7944012963448889 -0.0168534279275000 0.0
0.9578702626273643 0.0566238369917316 0.0
1.2722120753858459 -0.0228973929258171 0.0
0.6638693477779600 -0.0194605296618677 0.0
1.2098556410909269 0.1836382640337665 0.0
1.4870695916324317 0.0032237360552027 0.0
0.7111467095809623 -0.0122864669715172 0.0
1.1403082428861380 0.0048735745444256 0.0
1.2451523186564257 -0.0503205595664024 0.0
1.1334758809110763 -0.0453141127086752 0.0
1.3559313043595269 -0.1080590347224989 0.0
0.5071601269090146 0.1977534430419275 0.0
1.7268489962971700 0.0210478772850135 0.0
1.2854046374802561 0.0241222405620269 0.0
0.5715658773571958 0.0510156225786447 0.0
1.3932538294412273 -0.1264532579228963 0.0
1.4869884546376808 -0.0933829296426278 0.0
0.6502230010561743 -0.0059497203457793 0.0
1.0229188051026088 -0.0059676136040145 0.0
0.6721817224069375 -0.0390463787360747 0.0
0.9514571636878355 -0.0774190250153679 0.0
0.7848004418988355 -0.0536291033847482 0.0
0.4360343498879357 0.2037919341296902 0.0
1.1455513219225015 0.2117701920722724 0.0
1.5951409138493966 0.0112831985286141 0.0
0.5984862850864370 0.2108918208453703 0.0
1.5724000374327292 -0.0589366552748481 0.0
1.7450012026194726 0.0956141319432288 0.0
0.5740447624316408 0.1977657362806881 0.0
1.4786992498914457 0.0439056232385820 0.0
1.4054518512582401 -0.1417654483887590 0.0
0.9281501015797292 0.2470610209817692 0.0
1.2938923714974662 -0.0186991361877613 0.0
1.3214154953883837 0.0185859887957245 0.0
0.7802854391569092 0.0899308211701145 0.0
1.3386789785702833 -0.1076542756465408 0.0
0.7069587842111617 -0.0563802826982795 0.0
0.6235615767010596 0.1831028619804515 0.0
0.4412517900627971 0.0245557500718976 0.0
1.2306705723677827 -0.0308669115845380 0.0
0.8873840796154195 -0.2732535394218650 0.0
1.4121694977669779 0.0980898622942012 0.0
1.2948657864137449 -0.0990763363775074 0.0
0.5666301449256271 -0.0111577665892961 0.0
0.5889201328222576 0.0476688997051840 0.0
0.7015195426879922 0.0178197948113356 0.0
1.1270594931436082 0.0151589202639714 0.0
1.2004800853351882 0.2675827119855445 0.0
0.5739461229101194 -0.0352409539843256 0.0
1.1607721900946018 -0.0491237691640189 0.0
0.5952041036685519 0.0414393341921467 0.0
1.5704438282837825 0.0393745041140317 0.0
0.4797236005029159 0.2387771959101183 0.0
0.7505127608746192 -0.1202853970386058 0.0
1.5368900379347055 -0.0447160346892251 0.0
1.2575011035068124 0.0347310582006931 0.0
1.4849937504433581 -0.1306175811441961 0.0
0.6861974381821562 0.0058745404240959 0.0
0.8700040175337828 -0.0340178677788663 0.0
1.4508791926361360 -0.1026178553680470 0.0
1.3363728108698785 -0.0664210143342926 0.0
1.0208886016599994 0.0615881219939377 0.0
1.4446329108173632 0.0363053285465604 0.0
1.3057210066585385 -0.0721430275089642 0.0
1.2491365896030235 0.1244792756969830 0.0
0.9108606201290149 -0.0073805658956454 0.0
0.7423327224716765 -0.0214258798182809 0.0
0.6737503384118497 -0.0461480569593943 0.0
1.3117798752815630 -0.0715894886051658 0.0
1.3028668079239822 -0.0464798129166305 0.0
1.1169329407823629 0.1103132601383887 0.0
0.3689682993680345 0.0294417468389245 0.0
1.4336003655947351 -0.0965374569684114 0.0
0.3276499334088479 0.1117384474405331 0.0
0.6909612555216297 0.1206819818015966 0.0
1.1107861131236401 0.0159956011879607 0.0
0.5402026030292375 -0.1155948847376064 0.0
1.1469766679099289 -0.3104484453098320 0.0
1.3457053659861260 -0.0683221745385463 0.0
1.6090017382811643 -0.0177897871243817 0.0
0.7305266920233177 0.1117377353566346 0.0
1.5232943961555079 -0.0606685453846964 0.0
0.9264339971793853 -0.0329766055383390 0.0
1.3576360516727002 -0.0575331345625824 0.0
0.9294379327531503 -0.0259176763840042 0.0
0.5214693778618984 0.1955879548088451 0.0
0.9094449666415738 -0.0543108567376542 0.0
1.0283019675471528 -0.0639333883205385 0.0