# vtk DataFile Version 3.0
LucasCarvalhoTCC Results
ASCII

DATASET POLYDATA
FIELD FieldData 1
TIME 1 1 double
1.1

POINTS 600 float
0.0 2.0 0.0
0.25 1.989125 0.0
0.5 1.958 0.0
0.75 1.908875 0.0
1.0 1.844 0.0
1.25 1.765625 0.0
1.5 1.676 0.0
1.75 1.577375 0.0
2.0 1.472 0.0
2.25 1.362125 0.0
2.5 1.25 0.0
2.75 1.137875 0.0
3.0 1.028 0.0
3.25 0.922625 0.0
3.5 0.8240000000000001 0.0
3.75 0.734375 0.0
4.0 0.6560000000000001 0.0
4.25 0.5911249999999999 0.0
4.5 0.542 0.0
4.75 0.510875 0.0
5.0 0.5 0.0
5.25 0.5036250000000004 0.0
5.5 0.5140000000000002 0.0
5.75 0.5303750000000003 0.0
6.0 0.5519999999999996 0.0
6.25 0.578125 0.0
6.5 0.6080000000000005 0.0
6.75 0.6408749999999999 0.0
7.0 0.6760000000000002 0.0
7.25 0.7126249999999992 0.0
7.5 0.75 0.0
7.75 0.7873750000000004 0.0
8.0 0.8239999999999994 0.0
8.25 0.8591250000000001 0.0
8.5 0.8919999999999999 0.0
8.75 0.921875 0.0
9.0 0.9479999999999991 0.0
9.25 0.9696250000000011 0.0
9.5 0.9859999999999984 0.0
9.75 0.9963750000000013 0.0
10.0 1.0 0.0
0.0 0.0 0.0
10.0 0.0 0.0
0.124999999999674 1.994562500000014 0.0
0.3749999999999947 1.973562500000001 0.0
0.6249999999999918 1.933437500000002 0.0
0.874999999999979 1.876437500000006 0.0
1.124999999999963 1.804812500000012 0.0
1.374999999999944 1.72081250000002 0.0
1.624999999999985 1.626687500000006 0.0
1.874999999999953 1.52468750000002 0.0
2.124999999999936 1.417062500000028 0.0
2.374999999999952 1.306062500000022 0.0
2.624999999999919 1.193937500000036 0.0
2.87499999999992 1.082937500000035 0.0
3.124999999999946 0.9753125000000229 0.0
3.374999999999948 0.8733125000000204 0.0
3.624999999999972 0.77918750000001 0.0
3.874999999999963 0.6951875000000118 0.0
4.124999999999968 0.6235625000000082 0.0
4.394409538298571 0.5627485257243309 0.0
4.583333333333322 0.5316250000000015 0.0
4.666666666666668 0.5212499999999999 0.0
4.833333333333334 0.50725 0.0
4.916666666666667 0.503625 0.0
5.083333333333334 0.5012083333333335 0.0
5.166666666666666 0.502416666666667 0.0
5.333333333333334 0.5070833333333337 0.0
5.416666666666667 0.510541666666667 0.0
5.583333333333334 0.5194583333333336 0.0
5.666666666666666 0.5249166666666669 0.0
5.833333333333338 0.5375833333333339 0.0
5.916666666666661 0.544791666666666 0.0
6.105781577147724 0.5630541748119369 0.0
6.375 0.5930625000000003 0.0
6.624999999999988 0.6244374999999988 0.0
6.874999999999994 0.6584374999999991 0.0
7.125 0.6943124999999997 0.0
7.375 0.7313124999999996 0.0
7.624999999999994 0.7686874999999992 0.0
7.875 0.8056874999999999 0.0
8.125 0.8415624999999998 0.0
8.374999999999991 0.8755624999999989 0.0
8.624999999999995 0.9069374999999993 0.0
8.874999999999995 0.9349374999999991 0.0
9.125 0.9588125000000001 0.0
9.375 0.9778124999999998 0.0
9.625 0.9911874999999999 0.0
9.875 0.9981875000000007 0.0
0.0 1.799999999999167 0.0
0.0 1.6 0.0
0.0 1.400000000001387 0.0
0.0 1.200000000002774 0.0
0.0 1.000000000004117 0.0
0.0 0.8000000000033287 0.0
0.0 0.6000000000024965 0.0
0.0 0.4000000000016644 0.0
0.0 0.200000000000832 0.0
0.199999999999856 0.0 0.0
0.3999999999996677 0.0 0.0
0.5999999999994683 0.0 0.0
0.7999999999993286 0.0 0.0
0.9999999999991888 0.0 0.0
1.199999999999033 0.0 0.0
1.399999999998576 0.0 0.0
1.599999999997992 0.0 0.0
1.799999999997408 0.0 0.0
1.999999999996825 0.0 0.0
2.199999999996241 0.0 0.0
2.399999999995657 0.0 0.0
2.599999999995073 0.0 0.0
2.79999999999449 0.0 0.0
2.999999999993906 0.0 0.0
3.199999999993322 0.0 0.0
3.399999999992738 0.0 0.0
3.599999999992154 0.0 0.0
3.799999999991571 0.0 0.0
3.999999999991022 0.0 0.0
4.199999999991187 0.0 0.0
4.399999999991491 0.0 0.0
4.599999999991795 0.0 0.0
4.799999999992099 0.0 0.0
4.999999999992403 0.0 0.0
5.199999999992706 0.0 0.0
5.39999999999301 0.0 0.0
5.599999999993313 0.0 0.0
5.799999999993618 0.0 0.0
5.999999999993922 0.0 0.0
6.199999999994227 0.0 0.0
6.39999999999453 0.0 0.0
6.599999999994833 0.0 0.0
6.799999999995138 0.0 0.0
6.999999999995442 0.0 0.0
7.199999999995747 0.0 0.0
7.39999999999605 0.0 0.0
7.599999999996353 0.0 0.0
7.799999999996658 0.0 0.0
7.999999999996962 0.0 0.0
8.199999999997265 0.0 0.0
8.399999999997569 0.0 0.0
8.599999999997873 0.0 0.0
8.799999999998176 0.0 0.0
8.99999999999848 0.0 0.0
9.199999999998786 0.0 0.0
9.399999999999089 0.0 0.0
9.599999999999392 0.0 0.0
9.799999999999697 0.0 0.0
10.0 0.1999999999995579 0.0
10.0 0.3999999999989749 0.0
10.0 0.5999999999989468 0.0
10.0 0.7999999999994734 0.0
0.913963423524136 0.9126937851647636 0.0
1.629657910441747 0.8286436141773268 0.0
2.300136613917738 0.6369890708869279 0.0
0.5989085226155619 1.38125543468559 0.0
1.274155622640533 1.242773398230304 0.0
2.860215383945273 0.5217401976756945 0.0
9.469653920408135 0.4910067017840992 0.0
8.984679546317787 0.4696119782494839 0.0
8.499397693277212 0.4463630640980716 0.0
3.270918412356206 0.4522692359356972 0.0
1.223039611612243 0.5146439900227544 0.0
2.024812732135938 1.00818256045515 0.0
0.5365376864627701 0.5434316309416508 0.0
8.114834335444021 0.4602948767329583 0.0
7.742261962994204 0.4117304941858466 0.0
0.9443382341364558 1.456061359265878 0.0
1.665275621558886 1.201744468407863 0.0
1.89566112584099 0.4397284596316843 0.0
3.691409759982064 0.3560936332572802 0.0
7.368457390036411 0.3792926046732459 0.0
0.5071184951703254 0.9340893429149442 0.0
0.3822273842356539 1.647625881691675 0.0
5.916285335387544 0.2564903116750689 0.0
5.628860531758535 0.2582323053999509 0.0
5.380471017960128 0.2502349014663197 0.0
5.139244585769944 0.2549145445969738 0.0
2.686085237972266 0.8031095648160084 0.0
4.507599040026292 0.263176944655695 0.0
6.983755234374982 0.3380000000001097 0.0
9.720925955181613 0.6635813325201156 0.0
1.288006195687152 0.8759679848503046 0.0
9.20556379558699 0.6923669083350594 0.0
2.319913492084225 0.9512500928262699 0.0
8.73203612228155 0.6151508464420534 0.0
4.868679481352366 0.2526598053940744 0.0
4.10358044398202 0.3012437332986487 0.0
6.602422946953217 0.3126221952225479 0.0
2.534693527909069 0.3583319619586092 0.0
6.193332317503376 0.2894654215336858 0.0
0.8804088217382579 0.3735513844182569 0.0
0.7663303172393539 1.679065267574722 0.0
3.081211528283084 0.6968015573146217 0.0
1.241762689885858 1.521465072418641 0.0
1.573472750763779 0.3374689934575129 0.0
1.475107933015155 1.403918544935278 0.0
0.8212739503602162 1.195790902469637 0.0
4.681049549092561 0.3558177014380842 0.0
9.439519900118443 0.7366884444350511 0.0
2.201393787062887 0.3261463175998884 0.0
2.015369189818184 0.7109460688851087 0.0
8.32727069655695 0.6360373328685593 0.0
8.961488632119996 0.7119124617705204 0.0
9.22773266034565 0.3109430611770705 0.0
0.3000513553073295 1.178778127105867 0.0
1.91985473842554 1.233084801189704 0.0
8.749827252515535 0.3049638092131281 0.0
3.50551132590258 0.5576614504134195 0.0
3.040500962406976 0.290446660105673 0.0
9.72097519930939 0.3037986529514364 0.0
0.3073166349239687 0.3249300260882615 0.0
0.2948185331392187 0.7229775107826154 0.0
1.46029425821417 1.06552904833304 0.0
0.8085718129253527 0.673531272847494 0.0
7.913326191751847 0.5738936378911789 0.0
8.295349499871781 0.2556682497524391 0.0
4.31359646688283 0.3665214152100782 0.0
7.542842082022704 0.5249918217576657 0.0
1.058357552227335 1.116692590939024 0.0
2.214297272750292 1.159898327391242 0.0
2.901187336648686 0.8282146771898153 0.0
3.933498145061447 0.4325241689837319 0.0
7.956006969037984 0.2667411694088205 0.0
7.172393179434975 0.4835114022190097 0.0
1.440243631802057 0.6689433452646625 0.0
3.458541882144431 0.2581755850286561 0.0
5.791617360065465 0.3978542524532168 0.0
5.981529865241493 0.3900667299390458 0.0
1.083462543944253 0.7203994120564634 0.0
1.78518471978951 1.008552691762234 0.0
2.77360122246243 0.2689852172070111 0.0
2.565134389978369 0.9928826788184764 0.0
2.543046005790158 0.6034091352176242 0.0
3.293038780485421 0.6769811703257343 0.0
6.790787388653942 0.4353933509634578 0.0
1.140204059461831 0.2538227257007896 0.0
0.6242104065654487 0.2738473600765566 0.0
6.393430278703709 0.3766405270445946 0.0
8.533059390324546 0.6950580701614406 0.0
0.9961263693263854 1.612128843772703 0.0
1.697598586607002 0.5781950992180334 0.0
8.087930458724863 0.6517815437732153 0.0
0.2748906317360928 1.770749713716887 0.0
0.5785110002099415 1.757022387413085 0.0
5.550004842562332 0.3852675728674634 0.0
4.948161884155141 0.3480305424737933 0.0
1.741244734175577 1.381979611033466 0.0
5.312408927381063 0.3621256994047111 0.0
0.2492139438157334 1.453132031680879 0.0
7.597720022451821 0.2370268512906596 0.0
9.471021754366422 0.2472916581956264 0.0
7.714083843672875 0.600212897672991 0.0
4.520815862079482 0.3946753115680038 0.0
2.47356661122767 0.8007389356831706 0.0
7.325494311403363 0.528948935030723 0.0
7.147005275585743 0.2709670165999667 0.0
3.758046446289313 0.5474783841545341 0.0
3.893717059615281 0.1664960777568404 0.0
2.152835534199412 0.8614028741175742 0.0
8.995993312441625 0.1933410497113667 0.0
1.077676137392001 1.368204555688504 0.0
0.2429906229817933 0.9816066505657851 0.0
0.6261765586985547 1.180540007244081 0.0
9.81151801018651 0.816223424030724 0.0
0.6725442903064565 0.8425384371773644 0.0
1.74584086891446 0.2617492458514414 0.0
0.7667820686164357 1.440842670056678 0.0
8.539133693395232 0.1910926418035274 0.0
5.129145653242096 0.3632579123815574 0.0
6.816538849831732 0.2013284992826486 0.0
2.108503954619862 0.5359795950847274 0.0
6.933669557130528 0.4980836483776163 0.0
3.071406705674529 0.4919421055852253 0.0
2.001240035874449 0.2292738462614773 0.0
4.782473531509697 0.4061213127162872 0.0
0.5734126310178208 1.536352720889636 0.0
9.796714529589472 0.4898048068674991 0.0
5.678359041645315 0.373719883316694 0.0
5.427661572827738 0.3646059266294788 0.0
2.075214597532947 1.226969224366912 0.0
3.251521478555126 0.2637671977660283 0.0
2.722180837291864 0.9710783334409533 0.0
9.333262390342384 0.8479609887828539 0.0
1.367251332770493 0.2041553944563636 0.0
1.870721433742522 0.7905989208842599 0.0
1.387906762913351 1.555741687747287 0.0
9.559918612869 0.8444052974080497 0.0
9.286795039366257 0.4698254290795815 0.0
1.507117480770146 1.225129516597721 0.0
[...]
POINT_DATA 600

VECTORS Velocity float
0.0000000000000000 0.0000000000000000 0.0
0.0000000000000000 0.0000000000000000 0.0
0.0000000000000000 0.0000000000000000 0.0
0.0000000000000000 0.0000000000000000 0.0
0.0000000000000000 0.0000000000000000 0.0
0.0000000000000000 0.0000000000000000 0.0
0.0000000000000000 0.0000000000000000 0.0
0.0000000000000000 0.0000000000000000 0.0
0.0000000000000000 0.0000000000000000 0.0
0.0000000000000000 0.0000000000000000 0.0
0.0000000000000000 0.0000000000000000 0.0
0.0000000000000000 0.0000000000000000 0.0
0.0000000000000000 0.0000000000000000 0.0
0.0000000000000000 0.0000000000000000 0.0
0.0000000000000000 0.0000000000000000 0.0
0.0000000000000000 0.0000000000000000 0.0
0.0000000000000000 0.0000000000000000 0.0
0.0000000000000000 0.0000000000000000 0.0
0.0000000000000000 0.0000000000000000 0.0
0.0000000000000000 0.0000000000000000 0.0
0.0000000000000000 0.0000000000000000 0.0
0.0000000000000000 0.0000000000000000 0.0
0.0000000000000000 0.0000000000000000 0.0
0.0000000000000000 0.0000000000000000 0.0
0.0000000000000000 0.0000000000000000 0.0
0.0000000000000000 0.0000000000000000 0.0
0.0000000000000000 0.0000000000000000 0.0
0.0000000000000000 0.0000000000000000 0.0
0.0000000000000000 0.0000000000000000 0.0
0.0000000000000000 0.0000000000000000 0.0
0.0000000000000000 0.0000000000000000 0.0
0.0000000000000000 0.0000000000000000 0.0
0.0000000000000000 0.0000000000000000 0.0
0.0000000000000000 0.0000000000000000 0.0
0.0000000000000000 0.0000000000000000 0.0
0.0000000000000000 0.0000000000000000 0.0
0.0000000000000000 0.0000000000000000 0.0
0.0000000000000000 0.0000000000000000 0.0
0.0000000000000000 0.0000000000000000 0.0
0.0000000000000000 0.0000000000000000 0.0
0.0000000000000000 0.0000000000000000 0.0
0.0000000000000000 0.0000000000000000 0.0
0.8268310545368285 -0.1290916954893708 0.0
0.0000000000000000 0.0000000000000000 0.0
0.0000000000000000 0.0000000000000000 0.0
0.0000000000000000 0.0000000000000000 0.0
0.0000000000000000 0.0000000000000000 0.0
0.0000000000000000 0.0000000000000000 0.0
0.0000000000000000 0.0000000000000000 0.0
0.0000000000000000 0.0000000000000000 0.0
0.0000000000000000 0.0000000000000000 0.0
0.0000000000000000 0.0000000000000000 0.0
0.0000000000000000 0.0000000000000000 0.0
0.0000000000000000 0.0000000000000000 0.0
0.0000000000000000 0.0000000000000000 0.0
0.0000000000000000 0.0000000000000000 0.0
0.0000000000000000 0.0000000000000000 0.0
0.0000000000000000 0.0000000000000000 0.0
0.0000000000000000 0.0000000000000000 0.0
0.0000000000000000 0.0000000000000000 0.0
0.0000000000000000 0.0000000000000000 0.0
0.0000000000000000 0.0000000000000000 0.0
0.0000000000000000 0.0000000000000000 0.0
0.0000000000000000 0.0000000000000000 0.0
0.0000000000000000 0.0000000000000000 0.0
0.0000000000000000 0.0000000000000000 0.0
0.0000000000000000 0.0000000000000000 0.0
0.0000000000000000 0.0000000000000000 0.0
0.0000000000000000 0.0000000000000000 0.0
0.0000000000000000 0.0000000000000000 0.0
0.0000000000000000 0.0000000000000000 0.0
0.0000000000000000 0.0000000000000000 0.0
0.0000000000000000 0.0000000000000000 0.0
0.0000000000000000 0.0000000000000000 0.0
0.0000000000000000 0.0000000000000000 0.0
0.0000000000000000 0.0000000000000000 0.0
0.0000000000000000 0.0000000000000000 0.0
0.0000000000000000 0.0000000000000000 0.0
0.0000000000000000 0.0000000000000000 0.0
0.0000000000000000 0.0000000000000000 0.0
0.0000000000000000 0.0000000000000000 0.0
0.0000000000000000 0.0000000000000000 0.0
0.0000000000000000 0.0000000000000000 0.0
0.0000000000000000 0.0000000000000000 0.0
0.0000000000000000 0.0000000000000000 0.0
0.0000000000000000 0.0000000000000000 0.0
0.0000000000000000 0.0000000000000000 0.0
0.0000000000000000 0.0000000000000000 0.0
0.0000000000000000 0.0000000000000000 0.0
1.0000000000000000 0.0000000000000000 0.0
1.0000000000000000 0.0000000000000000 0.0
1.0000000000000000 0.0000000000000000 0.0
1.0000000000000000 0.0000000000000000 0.0
1.0000000000000000 0.0000000000000000 0.0
1.0000000000000000 0.0000000000000000 0.0
1.0000000000000000 0.0000000000000000 0.0
1.0000000000000000 0.0000000000000000 0.0
1.0000000000000000 0.0000000000000000 0.0
0.0000000000000000 0.0000000000000000 0.0
0.0000000000000000 0.0000000000000000 0.0
0.0000000000000000 0.0000000000000000 0.0
0.0000000000000000 0.0000000000000000 0.0
0.0000000000000000 0.0000000000000000 0.0
0.0000000000000000 0.0000000000000000 0.0
0.0000000000000000 0.0000000000000000 0.0
0.0000000000000000 0.0000000000000000 0.0
0.0000000000000000 0.0000000000000000 0.0
0.0000000000000000 0.0000000000000000 0.0
0.0000000000000000 0.0000000000000000 0.0
0.0000000000000000 0.0000000000000000 0.0
0.0000000000000000 0.0000000000000000 0.0
0.0000000000000000 0.0000000000000000 0.0
0.0000000000000000 0.0000000000000000 0.0
0.0000000000000000 0.0000000000000000 0.0
0.0000000000000000 0.0000000000000000 0.0
0.0000000000000000 0.0000000000000000 0.0
0.0000000000000000 0.0000000000000000 0.0
0.0000000000000000 0.0000000000000000 0.0
0.0000000000000000 0.0000000000000000 0.0
0.0000000000000000 0.0000000000000000 0.0
0.0000000000000000 0.0000000000000000 0.0
0.0000000000000000 0.0000000000000000 0.0
0.0000000000000000 0.0000000000000000 0.0
0.0000000000000000 0.0000000000000000 0.0
0.0000000000000000 0.0000000000000000 0.0
0.0000000000000000 0.0000000000000000 0.0
0.0000000000000000 0.0000000000000000 0.0
0.0000000000000000 0.0000000000000000 0.0
0.0000000000000000 0.0000000000000000 0.0
0.0000000000000000 0.0000000000000000 0.0
0.0000000000000000 0.0000000000000000 0.0
0.0000000000000000 0.0000000000000000 0.0
0.0000000000000000 0.0000000000000000 0.0
0.0000000000000000 0.0000000000000000 0.0
0.0000000000000000 0.0000000000000000 0.0
0.0000000000000000 0.0000000000000000 0.0
0.0000000000000000 0.0000000000000000 0.0
0.0000000000000000 0.0000000000000000 0.0
0.0000000000000000 0.0000000000000000 0.0
0.0000000000000000 0.0000000000000000 0.0
0.0000000000000000 0.0000000000000000 0.0
0.0000000000000000 0.0000000000000000 0.0
0.0000000000000000 0.0000000000000000 0.0
0.0000000000000000 0.0000000000000000 0.0
0.0000000000000000 0.0000000000000000 0.0
0.0000000000000000 0.0000000000000000 0.0
0.0000000000000000 0.0000000000000000 0.0
1.0709732885464716 -0.4479310139500045 0.0
0.9719427348260593 -0.1772410570170020 0.0
0.9818983504408801 -0.0259185141195750 0.0
1.0721493340739496 0.3665132334980196 0.0
1.2301955397712641 0.0032454399954439 0.0
1.2831335902103151 -0.0555126313667036 0.0
1.3385365612692139 -0.1254143803628590 0.0
1.1985220046473655 -0.0626327017959309 0.0
1.2955113915930856 -0.0795070455173950 0.0
1.4456258039262175 -0.0938178104020227 0.0
1.5157665891588599 -0.0213547606380890 0.0
1.4827538996898151 0.0147149452447745 0.0
1.5512802001656938 0.0830763145345722 0.0
1.4794659345830805 -0.1135375224052349 0.0
1.2213912802940809 -0.0039957260036748 0.0
1.2843862190804469 -0.0924979515953072 0.0
1.2091871980308906 0.1593812003998056 0.0
1.5509866982817642 0.0650132248608122 0.0
1.5329559605524792 0.0174090492498079 0.0
1.2100529703322631 -0.0611373083595799 0.0
1.2818352365867769 -0.0520173579304706 0.0
1.1957415597434626 -0.0215018454755461 0.0
1.5242663438258486 -0.0510839664300566 0.0
1.5739656723629987 0.0453694571876180 0.0
1.1396879835096385 0.0735559156262421 0.0
1.1925600571144348 -0.1847021893834202 0.0
1.4986692830667467 0.0195212126197818 0.0
1.5005677350828088 -0.0193738732783106 0.0
1.5296463816817114 0.0342834304805935 0.0
1.5519259009640378 0.0145601806160369 0.0
1.3290020991970584 -0.1326718980218848 0.0
1.4913370781812376 0.0028920700238006 0.0
1.6522140331833892 0.0247173639067819 0.0
1.3287111678472596 0.1178693904005422 0.0
1.2683462548355215 -0.0316609608120332 0.0
1.3704273694910047 -0.0414947614755732 0.0
1.2969681636220636 -0.1437372639204011 0.0
1.4745636958265396 0.0923235219248621 0.0
1.5166701221929966 0.0002124065616185 0.0
1.6261155328340424 -0.1010663118709220 0.0
1.6825529543251458 -0.0417792846288475 0.0
1.2277078824262617 -0.0636909704039604 0.0
1.5897482291049747 -0.0175988223649948 0.0
1.0867221605965351 0.0421224170141611 0.0
0.9957997788894796 0.0025344641171681 0.0
1.3638380996656334 -0.0733569892265602 0.0
1.0224936381810232 -0.0220803638879351 0.0
0.9910098320139148 -0.0482108929115359 0.0
1.1143740063102467 0.0015286332187124 0.0
1.2217297007749817 -0.0307514492673936 0.0
1.7899513929414363 -0.1321890167371151 0.0
1.2941984537547921 0.0012372058696934 0.0
1.0569845333468697 -0.0656011060527614 0.0
1.3065215730249720 -0.0707946545238270 0.0
1.3659436947916024 0.0349610422155822 0.0
1.3218381289475867 0.0056017566038328 0.0
1.2442835035253570 -0.0217105317772673 0.0
1.0622698543871600 -0.0226496066392888 0.0
1.1574369795017692 -0.0185515287996750 0.0
1.2606801134907248 0.0162557583742397 0.0
1.4381569782699153 -0.0669597718743665 0.0
1.2370888985098460 -0.0215212861237610 0.0
1.2199449004327749 -0.1871143263519565 0.0
1.1464707194117301 0.2950003415435218 0.0
1.0802032807362947 0.1615254312653957 0.0
1.3013934580154549 -0.0527964084321054 0.0
1.2276529013075810 0.0543085581028053 0.0
1.4017780401033058 0.0588338281781093 0.0
1.2353974548655264 0.0176774621138155 0.0
1.7364182930033560 0.0645591243954061 0.0
1.4688126253395994 0.0028635991594695 0.0
1.2557198118540327 -0.0364188552208825 0.0
1.0123398310984499 -0.0375931396118152 0.0
1.1453535302166546 -0.0327517909042519 0.0
1.5979148202839457 -0.1309970783656773 0.0
1.3073025408915291 0.0503442557215331 0.0
1.4398385415394406 0.0693325072299401 0.0
1.2724712117528518 -0.0306359228597908 0.0
1.2489974050865533 -0.0392445545413371 0.0
1.5210774391858206 -0.0397027580121373 0.0
1.5982215167672595 0.0414148606708277 0.0
1.2507914915809091 0.0035684033228352 0.0
1.3021137319845604 -0.0707564948624006 0.0
1.1205383867615155 -0.0728939820679036 0.0
1.0509146391769024 -0.0568680486534863 0.0
1.3891167173288970 -0.1296731236408802 0.0
1.2446475427209081 -0.1085392127161252 0.0
1.5789285449468502 0.0122497782969614 0.0
0.7376330589671249 0.0241887059022463 0.0
0.9632418869888075 0.0763565560172776 0.0
1.6615607785011639 0.0153168761077538 0.0
1.2510755749575821 -0.0003385895980000 0.0
1.0076440307340511 -0.0127528725971458 0.0
1.2508694943314738 -0.0642642784879337 0.0
1.2122131337297897 0.0077484938079711 0.0
1.1432095886011429 -0.2528181259393786 0.0
0.9369973115600531 0.0360029945150910 0.0
1.5789870665746673 0.0105607064983898 0.0
1.6527072445804085 -0.0111804839398362 0.0
0.9670205046159157 0.0501186505476209 0.0
1.5947193874739631 0.0550294689037315 0.0
1.0876451023501690 -0.1385742129606891 0.0
1.2314937158588797 0.0302972886669653 0.0
1.1419475198378870 -0.0333171375333455 0.0
1.2404718027943764 0.0198963570822521 0.0
1.6581481465393932 -0.0254410779568841 0.0
1.3569033018130809 -0.1831862135729931 0.0
1.4363529982606575 0.0403613284535963 0.0
1.4501796170052070 0.0848575594916534 0.0
1.3406437845164221 -0.0523807548352657 0.0
0.7512059500069076 -0.0884934832508584 0.0
1.3111632599797405 -0.1220728533982251 0.0
0.6921350282549553 -0.0085330936750852 0.0
1.2532461217593553 -0.0740441520594201 0.0
1.0395666037982618 0.0311326609597420 0.0
1.1779157826595303 -0.0069025092148710 0.0
1.1787084942065171 0.2186037327438067 0.0
1.1897820468431122 0.0671751850829184 0.0
0.8472893132165936 0.0155580461315695 0.0
1.2279280382020137 -0.0643203390642804 0.0
0.7294472503232683 0.0021206631974279 0.0
1.6403941586711670 0.0034193017736201 0.0
1.0196134331257047 0.0764825075140734 0.0
1.2927187013998727 -0.0900650641305514 0.0
1.1338943567398234 0.0017091777668774 0.0
1.4388978621121624 -0.1296108933240447 0.0
0.6546135610897788 -0.0452392096008589 0.0
1.1704019592189638 -0.0759021485866168 0.0
1.2220462652483970 -0.0722477597196506 0.0
1.2614191730240649 -0.0914047350467133 0.0
1.6200343589792330 -0.0128153122067007 0.0
1.5923575216304617 0.0467465382668563 0.0
1.0023227677766697 0.0353239109510457 0.0
1.2449519442906936 -0.0392343440210629 0.0
0.8000599482932028 0.0760421071299743 0.0
0.6276279132203352 -0.0021723721544379 0.0
0.5476377309873304 0.0283127160912852 0.0
1.2846031262006159 -0.0652764377722795 0.0
0.6712971437006060 0.1384111707030579 0.0
0.7323608508584952 -0.0072453457889440 0.0
1.4971454802934439 0.0153973980996868 0.0
1.2957741806648346 -0.0579361044340390 0.0
1.2256953982001522 -0.0337255458592210 0.0
1.5386902889019622 0.0562899005926939 0.0
1.2793802797180498 -0.0514112048407510 0.0
1.5653244150061825 0.0296372042825853 0.0
1.1892666572714490 0.0612707273547510 0.0
1.1268329428173900 -0.2106248370370699 0.0
1.1633349983112125 0.1291032208853171 0.0
1.1065081379025510 0.2087034798239933 0.0
1.0725926278989886 -0.0472434541251539 0.0
1.1834485232257237 0.0276420150488824 0.0
0.9337391980101979 0.0373240893551001 0.0
0.6702567091689611 0.1151075224822325 0.0
0.9922486909012188 -0.0116534967725903 0.0
1.2548065308710712 -0.0260541402926130 0.0
0.7741858576839510 0.0694230541879826 0.0
1.2262327220974445 0.0278505234017955 0.0
1.2819618174579170 -0.0445910057872157 0.0
0.9698529957658250 -0.0085050441372205 0.0
1.2633995754030851 0.0320082546552828 0.0
1.4885730431683255 0.0446799324447320 0.0
1.1905473964643871 -0.1115368455407352 0.0
1.2799978521608242 -0.0837186012756706 0.0
0.6273486096853037 0.1179596242702227 0.0
0.6276772879458671 0.0918126314581823 0.0
0.8454994621347041 -0.0111003079983277 0.0
1.4212263491523549 -0.0854090645730238 0.0
1.2923974516114634 -0.0562505515760217 0.0
0.6530145039580798 0.1342168639253549 0.0
0.7535058991569689 -0.0398083210771876 0.0
1.1151300037146334 0.0169085930499038 0.0
1.3822364408135406 -0.0793564888471897 0.0
0.9906661947595662 -0.0065547677003424 0.0
1.1994840241008162 0.0107232757410750 0.0
1.2750687568313777 -0.0534087075928675 0.0
0.9577417313611475 0.0080117143999228 0.0
0.8759532058055540 0.0679388819857900 0.0
1.3235195408636193 0.0006517323544021 0.0
0.7885768140479023 -0.0264881088864109 0.0
1.5465450047737139 -0.0239322723299267 0.0
0.7776605942784396 0.0208258654667427 0.0
0.7821082882243874 -0.0264019189512170 0.0
1.2479337179429695 -0.0583964575596655 0.0
1.2676161145593769 -0.0141957744979958 0.0
0.9994202180623274 0.0061940276240557 0.0
0.6929534543282716 0.1572727964367754 0.0
0.9026504694915735 -0.0024738038562748 0.0
1.2047088064031397 -0.0310463329476230 0.0
0.8522281550965147 0.0692895824746457 0.0
1.1962782297545373 0.1016314844834862 0.0
1.1775934411611040 -0.0566134627480785 0.0
0.6955460926243693 0.0186810749857497 0.0
1.4678392308561861 -0.0161405092051546 0.0
0.9164160794483540 -0.0100577414656062 0.0
1.4838433451494117 -0.0201654299131185 0.0
0.5301792333870008 -0.0403177134699703 0.0
1.3399869171386773 -0.1390641665092370 0.0
1.5298876770899150 -0.0142658950368402 0.0
0.6588717006943985 0.1040715848558370 0.0
0.7891087495980309 -0.0248443411323763 0.0
1.5493500544893841 0.0690895709017232 0.0
0.9537412967006170 0.0696285958920414 0.0
1.5272242588474716 0.0497674607503331 0.0
1.1098151402615404 -0.0478632692150983 0.0
0.8147077820423366 -0.0548081368174282 0.0
0.7359530711666873 -0.0178678187836953 0.0
1.0079558524033558 -0.0247370467416594 0.0
0.9926964851914625 0.0292253537872947 0.0
1.4627829996734392 0.0112887317435592 0.0
0.5852026807806910 0.0352641654243678 0.0
0.8767075297479163 -0.0580085224291076 0.0
0.8475425349715230 0.0530804390145150 0.0
1.4158788721233146 0.0678514558490127 0.0
0.8095206788347061 -0.1938161867565051 0.0
0.8274500188709344 -0.0250030972215610 0.0
0.5544216673684216 -0.0451309546883122 0.0
1.1520190083397044 -0.0121513773358236 0.0
0.7605338354172506 0.1667352375369543 0.0
0.8937739295272527 0.0427476395233504 0.0
1.2552232219614632 -0.1298223924769405 0.0
0.7816799098919511 -0.0150320508577758 0.0
0.9063818662736511 -0.0027706392914021 0.0
1.1068920371341064 -0.0394337042486716 0.0
0.7981086892822975 -0.0244107098293385 0.0
0.7675389130970396 -0.0457960145194183 0.0
1.4461919858580428 0.0319613632346030 0.0
0.8124639636681447 -0.0299724820718170 0.0
1.0339394003873015 -0.0498482787224153 0.0
0.8394080052638452 0.0546752429925584 0.0
1.2946846987191598 -0.0649214709882866 0.0
0.6645074416689922 -0.0133886371485001 0.0
0.4915313649545246 0.0098142106821343 0.0
1.1392770163844492 -0.0404691361689150 0.0
0.8459473282659553 0.0929509254853738 0.0
0.7927743246253880 -0.0177555808269556 0.0
0.9547132562580152 0.0550058815085958 0.0
1.2251697472304226 -0.0174905492254695 0.0
0.6869835419241852 -0.0176083906672856 0.0
1.1977989617977216 0.1705187359065135 0.0
1.4563300790751286 0.0001528889644498 0.0
0.7130591531302646 -0.0110850637387660 0.0
1.1310322060294276 0.0064709563145924 0.0
1.2132329098965320 -0.0400444362211890 0.0
1.1584172306811216 -0.0429066234696277 0.0
1.2938558236456004 -0.0921438776434650 0.0
0.5433203017225404 0.1834827233464103 0.0
1.7166949289818538 0.0206133269128649 0.0
1.2337138602156543 0.0205722868580949 0.0
0.5950966326260544 0.0522553091388055 0.0
1.3280653480935387 -0.1073859266923882 0.0
1.4444311652805431 -0.0957570694288361 0.0
0.6737237710325872 -0.0034689028708186 0.0
1.0221618380473403 -0.0004320068587304 0.0
0.6705937287008785 -0.0394432481049018 0.0
0.9509414934185327 -0.0772651259288010 0.0
0.7869129478035206 -0.0551273882549326 0.0
0.4700884651314226 0.1928206776158062 0.0
1.1617451211937238 0.1792163697169992 0.0
1.5925727057268937 0.0140678783757481 0.0
0.6243452007421737 0.1990789190391341 0.0
1.5547987843635129 -0.0517006280736991 0.0
1.7410870070947504 0.0872040797922076 0.0
0.6093597393615223 0.1804326007636256 0.0
1.4653557896150446 0.0441016713184409 0.0
1.3880820920015600 -0.1417868097149257 0.0
0.9331603463918313 0.2424939299868215 0.0
1.2984468228275270 -0.0171096165831752 0.0
1.3230046073617174 0.0160385425673793 0.0
0.7810476904635743 0.0898125328602983 0.0
1.3343000668913481 -0.0957449371651980 0.0
0.7305901782680162 -0.0558498964867360 0.0
0.6633237233765834 0.1684921983801651 0.0
0.4786916312250894 0.0286067852600263 0.0
1.2452290063967464 -0.0341886401674095 0.0
0.8935367044534618 -0.2681657861962234 0.0
1.4010682805744241 0.0915579259731087 0.0
1.2920521328033785 -0.0838320837054281 0.0
0.5824313060702000 -0.0108939339167863 0.0
0.6060602617519101 0.0469396832551958 0.0
0.7076304125647706 0.0172435228084299 0.0
1.1086584320947854 0.0238759068038329 0.0
1.1902226012310126 0.2355702569997000 0.0
0.5944284869767925 -0.0382636341382266 0.0
1.1827495345268610 -0.0413481221429228 0.0
0.6017755049473280 0.0435557398620615 0.0
1.5699193213213578 0.0371375344554273 0.0
0.5076978408377876 0.2257796608631763 0.0
0.7665746619498390 -0.1176868547286437 0.0
1.5244475208223331 -0.0453389275336658 0.0
1.2619225299313810 0.0301001008898286 0.0
1.4288389408145556 -0.1192167333038401 0.0
0.6934016953054040 0.0055854166365764 0.0
0.8675937253077450 -0.0341156873591189 0.0
1.4328839043682911 -0.0977622870644550 0.0
1.2772438705782005 -0.0526335455467931 0.0
1.0178607929620200 0.0607240853317405 0.0
1.4320669653177118 0.0352809295344899 0.0
1.2710556928034777 -0.0661860932520870 0.0
1.2168653012980364 0.1036817349696949 0.0
0.9679053093307787 -0.0057606686657176 0.0
0.7406412465918968 -0.0221318592269078 0.0
0.6716555909610257 -0.0455235981919254 0.0
1.2968067031091877 -0.0691636903676966 0.0
1.2738605377519054 -0.0336050221242711 0.0
1.0993999982626255 0.1036834839407081 0.0
0.4044490139310493 0.0294667263272237 0.0
1.4220273929541174 -0.1023622832249997 0.0
0.3572815078190968 0.1100563017626219 0.0
0.6959138876508848 0.1177340988277549 0.0
1.1498858968775396 -0.0063928600711488 0.0
0.5468363741203838 -0.1186205612447910 0.0
1.1468174347580269 -0.2988429537969904 0.0
1.3021560676224995 -0.0600716296012696 0.0
1.6035626621456680 -0.0157248355034656 0.0
0.7286959710652656 0.1105476072369967 0.0
1.5249281338990355 -0.0589202149354796 0.0
0.9180959702251235 -0.0320495628842901 0.0
1.3131741789615743 -0.0524991612186984 0.0
0.9224495897403718 -0.0265039840982670 0.0
0.5552952147601393 0.1799221596629907 0.0
0.9123554334210328 -0.0520606345111745 0.0
1.0342052678056890 -0.0622168739467699 0.0