# vtk DataFile Version 3.0
LucasCarvalhoTCC Results
ASCII

DATASET POLYDATA
FIELD FieldData 1
TIME 1 1 double
2.1

POINTS 600 float
0.0 2.0 0.0
0.25 1.989125 0.0
0.5 1.958 0.0
0.75 1.908875 0.0
1.0 1.844 0.0
1.25 1.765625 0.0
1.5 1.676 0.0
1.75 1.577375 0.0
2.0 1.472 0.0
2.25 1.362125 0.0
2.5 1.25 0.0
2.75 1.137875 0.0
3.0 1.028 0.0
3.25 0.922625 0.0
3.5 0.8240000000000001 0.0
3.75 0.734375 0.0
4.0 0.6560000000000001 0.0
4.25 0.5911249999999999 0.0
4.5 0.542 0.0
4.75 0.510875 0.0
5.0 0.5 0.0
5.25 0.5036250000000004 0.0
5.5 0.5140000000000002 0.0
5.75 0.5303750000000003 0.0
6.0 0.5519999999999996 0.0
6.25 0.578125 0.0
6.5 0.6080000000000005 0.0
6.75 0.6408749999999999 0.0
7.0 0.6760000000000002 0.0
7.25 0.7126249999999992 0.0
7.5 0.75 0.0
7.75 0.7873750000000004 0.0
8.0 0.8239999999999994 0.0
8.25 0.8591250000000001 0.0
8.5 0.8919999999999999 0.0
8.75 0.921875 0.0
9.0 0.9479999999999991 0.0
9.25 0.9696250000000011 0.0
9.5 0.9859999999999984 0.0
9.75 0.9963750000000013 0.0
10.0 1.0 0.0
0.0 0.0 0.0
10.0 0.0 0.0
0.124999999999674 1.994562500000014 0.0
0.3749999999999947 1.973562500000001 0.0
0.6249999999999918 1.933437500000002 0.0
0.874999999999979 1.876437500000006 0.0
1.124999999999963 1.804812500000012 0.0
1.374999999999944 1.72081250000002 0.0
1.624999999999985 1.626687500000006 0.0
1.874999999999953 1.52468750000002 0.0
2.124999999999936 1.417062500000028 0.0
2.374999999999952 1.306062500000022 0.0
2.624999999999919 1.193937500000036 0.0
2.87499999999992 1.082937500000035 0.0
3.124999999999946 0.9753125000000229 0.0
3.374999999999948 0.8733125000000204 0.0
3.624999999999972 0.77918750000001 0.0
3.874999999999963 0.6951875000000118 0.0
4.124999999999968 0.6235625000000082 0.0
4.394409538298571 0.5627485257243309 0.0
4.583333333333322 0.5316250000000015 0.0
4.666666666666668 0.5212499999999999 0.0
4.833333333333334 0.50725 0.0
4.916666666666667 0.503625 0.0
5.083333333333334 0.5012083333333335 0.0
5.166666666666666 0.502416666666667 0.0
5.333333333333334 0.5070833333333337 0.0
5.416666666666667 0.510541666666667 0.0
5.583333333333334 0.5194583333333336 0.0
5.666666666666666 0.5249166666666669 0.0
5.833333333333338 0.5375833333333339 0.0
5.916666666666661 0.544791666666666 0.0
6.105781577147724 0.5630541748119369 0.0
6.375 0.5930625000000003 0.0
6.624999999999988 0.6244374999999988 0.0
6.874999999999994 0.6584374999999991 0.0
7.125 0.6943124999999997 0.0
7.375 0.7313124999999996 0.0
7.624999999999994 0.7686874999999992 0.0
7.875 0.8056874999999999 0.0
8.125 0.8415624999999998 0.0
8.374999999999991 0.8755624999999989 0.0
8.624999999999995 0.9069374999999993 0.0
8.874999999999995 0.9349374999999991 0.0
9.125 0.9588125000000001 0.0
9.375 0.9778124999999998 0.0
9.625 0.9911874999999999 0.0
9.875 0.9981875000000007 0.0
0.0 1.799999999999167 0.0
0.0 1.6 0.0
0.0 1.400000000001387 0.0
0.0 1.200000000002774 0.0
0.0 1.000000000004117 0.0
0.0 0.8000000000033287 0.0
0.0 0.6000000000024965 0.0
0.0 0.4000000000016644 0.0
0.0 0.200000000000832 0.0
0.199999999999856 0.0 0.0
0.3999999999996677 0.0 0.0
0.5999999999994683 0.0 0.0
0.7999999999993286 0.0 0.0
0.9999999999991888 0.0 0.0
1.199999999999033 0.0 0.0
1.399999999998576 0.0 0.0
1.599999999997992 0.0 0.0
1.799999999997408 0.0 0.0
1.999999999996825 0.0 0.0
2.199999999996241 0.0 0.0
2.399999999995657 0.0 0.0
2.599999999995073 0.0 0.0
2.79999999999449 0.0 0.0
2.999999999993906 0.0 0.0
3.199999999993322 0.0 0.0
3.399999999992738 0.0 0.0
3.599999999992154 0.0 0.0
3.799999999991571 0.0 0.0
3.999999999991022 0.0 0.0
4.199999999991187 0.0 0.0
4.399999999991491 0.0 0.0
4.599999999991795 0.0 0.0
4.799999999992099 0.0 0.0
4.999999999992403 0.0 0.0
5.199999999992706 0.0 0.0
5.39999999999301 0.0 0.0
5.599999999993313 0.0 0.0
5.799999999993618 0.0 0.0
5.999999999993922 0.0 0.0
6.199999999994227 0.0 0.0
6.39999999999453 0.0 0.0
6.599999999994833 0.0 0.0
6.799999999995138 0.0 0.0
6.999999999995442 0.0 0.0
7.199999999995747 0.0 0.0
7.39999999999605 0.0 0.0
7.599999999996353 0.0 0.0
7.799999999996658 0.0 0.0
7.999999999996962 0.0 0.0
8.199999999997265 0.0 0.0
8.399999999997569 0.0 0.0
8.599999999997873 0.0 0.0
8.799999999998176 0.0 0.0
8.99999999999848 0.0 0.0
9.199999999998786 0.0 0.0
9.399999999999089 0.0 0.0
9.599999999999392 0.0 0.0
9.799999999999697 0.0 0.0
10.0 0.1999999999995579 0.0
10.0 0.3999999999989749 0.0
10.0 0.5999999999989468 0.0
10.0 0.7999999999994734 0.0
0.913963423524136 0.9126937851647636 0.0
1.629657910441747 0.8286436141773268 0.0
2.300136613917738 0.6369890708869279 0.0
0.5989085226155619 1.38125543468559 0.0
1.274155622640533 1.242773398230304 0.0
2.860215383945273 0.5217401976756945 0.0
9.469653920408135 0.4910067017840992 0.0
8.984679546317787 0.4696119782494839 0.0
8.499397693277212 0.4463630640980716 0.0
3.270918412356206 0.4522692359356972 0.0
1.223039611612243 0.5146439900227544 0.0
2.024812732135938 1.00818256045515 0.0
0.5365376864627701 0.5434316309416508 0.0
8.114834335444021 0.4602948767329583 0.0
7.742261962994204 0.4117304941858466 0.0
0.9443382341364558 1.456061359265878 0.0
1.665275621558886 1.201744468407863 0.0
1.89566112584099 0.4397284596316843 0.0
3.691409759982064 0.3560936332572802 0.0
7.368457390036411 0.3792926046732459 0.0
0.5071184951703254 0.9340893429149442 0.0
0.3822273842356539 1.647625881691675 0.0
5.916285335387544 0.2564903116750689 0.0
5.628860531758535 0.2582323053999509 0.0
5.380471017960128 0.2502349014663197 0.0
5.139244585769944 0.2549145445969738 0.0
2.686085237972266 0.8031095648160084 0.0
4.507599040026292 0.263176944655695 0.0
6.983755234374982 0.3380000000001097 0.0
9.720925955181613 0.6635813325201156 0.0
1.288006195687152 0.8759679848503046 0.0
9.20556379558699 0.6923669083350594 0.0
2.319913492084225 0.9512500928262699 0.0
8.73203612228155 0.6151508464420534 0.0
4.868679481352366 0.2526598053940744 0.0
4.10358044398202 0.3012437332986487 0.0
6.602422946953217 0.3126221952225479 0.0
2.534693527909069 0.3583319619586092 0.0
6.193332317503376 0.2894654215336858 0.0
0.8804088217382579 0.3735513844182569 0.0
0.7663303172393539 1.679065267574722 0.0
3.081211528283084 0.6968015573146217 0.0
1.241762689885858 1.521465072418641 0.0
1.573472750763779 0.3374689934575129 0.0
1.475107933015155 1.403918544935278 0.0
0.8212739503602162 1.195790902469637 0.0
4.681049549092561 0.3558177014380842 0.0
9.439519900118443 0.7366884444350511 0.0
2.201393787062887 0.3261463175998884 0.0
2.015369189818184 0.7109460688851087 0.0
8.32727069655695 0.6360373328685593 0.0
8.961488632119996 0.7119124617705204 0.0
9.22773266034565 0.3109430611770705 0.0
0.3000513553073295 1.178778127105867 0.0
1.91985473842554 1.233084801189704 0.0
8.749827252515535 0.3049638092131281 0.0
3.50551132590258 0.5576614504134195 0.0
3.040500962406976 0.290446660105673 0.0
9.72097519930939 0.3037986529514364 0.0
0.3073166349239687 0.3249300260882615 0.0
0.2948185331392187 0.7229775107826154 0.0
1.46029425821417 1.06552904833304 0.0
0.8085718129253527 0.673531272847494 0.0
7.913326191751847 0.5738936378911789 0.0
8.295349499871781 0.2556682497524391 0.0
4.31359646688283 0.3665214152100782 0.0
7.542842082022704 0.5249918217576657 0.0
1.058357552227335 1.116692590939024 0.0
2.214297272750292 1.159898327391242 0.0
2.901187336648686 0.8282146771898153 0.0
3.933498145061447 0.4325241689837319 0.0
7.956006969037984 0.2667411694088205 0.0
7.172393179434975 0.4835114022190097 0.0
1.440243631802057 0.6689433452646625 0.0
3.458541882144431 0.2581755850286561 0.0
5.791617360065465 0.3978542524532168 0.0
5.981529865241493 0.3900667299390458 0.0
1.083462543944253 0.7203994120564634 0.0
1.78518471978951 1.008552691762234 0.0
2.77360122246243 0.2689852172070111 0.0
2.565134389978369 0.9928826788184764 0.0
2.543046005790158 0.6034091352176242 0.0
3.293038780485421 0.6769811703257343 0.0
6.790787388653942 0.4353933509634578 0.0
1.140204059461831 0.2538227257007896 0.0
0.6242104065654487 0.2738473600765566 0.0
6.393430278703709 0.3766405270445946 0.0
8.533059390324546 0.6950580701614406 0.0
0.9961263693263854 1.612128843772703 0.0
1.697598586607002 0.5781950992180334 0.0
8.087930458724863 0.6517815437732153 0.0
0.2748906317360928 1.770749713716887 0.0
0.5785110002099415 1.757022387413085 0.0
5.550004842562332 0.3852675728674634 0.0
4.948161884155141 0.3480305424737933 0.0
1.741244734175577 1.381979611033466 0.0
5.312408927381063 0.3621256994047111 0.0
0.2492139438157334 1.453132031680879 0.0
7.597720022451821 0.2370268512906596 0.0
9.471021754366422 0.2472916581956264 0.0
7.714083843672875 0.600212897672991 0.0
4.520815862079482 0.3946753115680038 0.0
2.47356661122767 0.8007389356831706 0.0
7.325494311403363 0.528948935030723 0.0
7.147005275585743 0.2709670165999667 0.0
3.758046446289313 0.5474783841545341 0.0
3.893717059615281 0.1664960777568404 0.0
2.152835534199412 0.8614028741175742 0.0
8.995993312441625 0.1933410497113667 0.0
1.077676137392001 1.368204555688504 0.0
0.2429906229817933 0.9816066505657851 0.0
0.6261765586985547 1.180540007244081 0.0
9.81151801018651 0.816223424030724 0.0
0.6725442903064565 0.8425384371773644 0.0
1.74584086891446 0.2617492458514414 0.0
0.7667820686164357 1.440842670056678 0.0
8.539133693395232 0.1910926418035274 0.0
5.129145653242096 0.3632579123815574 0.0
6.816538849831732 0.2013284992826486 0.0
2.108503954619862 0.5359795950847274 0.0
6.933669557130528 0.4980836483776163 0.0
3.071406705674529 0.4919421055852253 0.0
2.001240035874449 0.2292738462614773 0.0
4.782473531509697 0.4061213127162872 0.0
0.5734126310178208 1.536352720889636 0.0
9.796714529589472 0.4898048068674991 0.0
5.678359041645315 0.373719883316694 0.0
5.427661572827738 0.3646059266294788 0.0
2.075214597532947 1.226969224366912 0.0
3.251521478555126 0.2637671977660283 0.0
2.722180837291864 0.9710783334409533 0.0
9.333262390342384 0.8479609887828539 0.0
1.367251332770493 0.2041553944563636 0.0
1.870721433742522 0.7905989208842599 0.0
1.387906762913351 1.555741687747287 0.0
9.559918612869 0.8444052974080497 0.0
9.286795039366257 0.4698254290795815 0.0
1.507117480770146 1.225129516597721 0.0
[...]
POINT_DATA 600

VECTORS Velocity float
0.0000000000000000 0.0000000000000000 0.0
0.0000000000000000 0.0000000000000000 0.0
0.0000000000000000 0.0000000000000000 0.0
0.0000000000000000 0.0000000000000000 0.0
0.0000000000000000 0.0000000000000000 0.0
0.0000000000000000 0.0000000000000000 0.0
0.0000000000000000 0.0000000000000000 0.0
0.0000000000000000 0.0000000000000000 0.0
0.0000000000000000 0.0000000000000000 0.0
0.0000000000000000 0.0000000000000000 0.0
0.0000000000000000 0.0000000000000000 0.0
0.0000000000000000 0.0000000000000000 0.0
0.0000000000000000 0.0000000000000000 0.0
0.0000000000000000 0.0000000000000000 0.0
0.0000000000000000 0.0000000000000000 0.0
0.0000000000000000 0.0000000000000000 0.0
0.0000000000000000 0.0000000000000000 0.0
0.0000000000000000 0.0000000000000000 0.0
0.0000000000000000 0.0000000000000000 0.0
0.0000000000000000 0.0000000000000000 0.0
0.0000000000000000 0.0000000000000000 0.0
0.0000000000000000 0.0000000000000000 0.0
0.0000000000000000 0.0000000000000000 0.0
0.0000000000000000 0.0000000000000000 0.0
0.0000000000000000 0.0000000000000000 0.0
0.0000000000000000 0.0000000000000000 0.0
0.0000000000000000 0.0000000000000000 0.0
0.0000000000000000 0.0000000000000000 0.0
0.0000000000000000 0.0000000000000000 0.0
0.0000000000000000 0.0000000000000000 0.0
0.0000000000000000 0.0000000000000000 0.0
0.0000000000000000 0.0000000000000000 0.0
0.0000000000000000 0.0000000000000000 0.0
0.0000000000000000 0.0000000000000000 0.0
0.0000000000000000 0.0000000000000000 0.0
0.0000000000000000 0.0000000000000000 0.0
0.0000000000000000 0.0000000000000000 0.0
0.0000000000000000 0.0000000000000000 0.0
0.0000000000000000 0.0000000000000000 0.0
0.0000000000000000 0.0000000000000000 0.0
0.0000000000000000 0.0000000000000000 0.0
0.0000000000000000 0.0000000000000000 0.0
0.8245982636019276 -0.1312513166728339 0.0
0.0000000000000000 0.0000000000000000 0.0
0.0000000000000000 0.0000000000000000 0.0
0.0000000000000000 0.0000000000000000 0.0
0.0000000000000000 0.0000000000000000 0.0
0.0000000000000000 0.0000000000000000 0.0
0.0000000000000000 0.0000000000000000 0.0
0.0000000000000000 0.0000000000000000 0.0
0.0000000000000000 0.0000000000000000 0.0
0.0000000000000000 0.0000000000000000 0.0
0.0000000000000000 0.0000000000000000 0.0
0.0000000000000000 0.0000000000000000 0.0
0.0000000000000000 0.0000000000000000 0.0
0.0000000000000000 0.0000000000000000 0.0
0.0000000000000000 0.0000000000000000 0.0
0.0000000000000000 0.0000000000000000 0.0
0.0000000000000000 0.0000000000000000 0.0
0.0000000000000000 0.0000000000000000 0.0
0.0000000000000000 0.0000000000000000 0.0
0.0000000000000000 0.0000000000000000 0.0
0.0000000000000000 0.0000000000000000 0.0
0.0000000000000000 0.0000000000000000 0.0
0.0000000000000000 0.0000000000000000 0.0
0.0000000000000000 0.0000000000000000 0.0
0.0000000000000000 0.0000000000000000 0.0
0.0000000000000000 0.0000000000000000 0.0
0.0000000000000000 0.0000000000000000 0.0
0.0000000000000000 0.0000000000000000 0.0
0.0000000000000000 0.0000000000000000 0.0
0.0000000000000000 0.0000000000000000 0.0
0.0000000000000000 0.0000000000000000 0.0
0.0000000000000000 0.0000000000000000 0.0
0.0000000000000000 0.0000000000000000 0.0
0.0000000000000000 0.0000000000000000 0.0
0.0000000000000000 0.0000000000000000 0.0
0.0000000000000000 0.0000000000000000 0.0
0.0000000000000000 0.0000000000000000 0.0
0.0000000000000000 0.0000000000000000 0.0
0.0000000000000000 0.0000000000000000 0.0
0.0000000000000000 0.0000000000000000 0.0
0.0000000000000000 0.0000000000000000 0.0
0.0000000000000000 0.0000000000000000 0.0
0.0000000000000000 0.0000000000000000 0.0
0.0000000000000000 0.0000000000000000 0.0
0.0000000000000000 0.0000000000000000 0.0
0.0000000000000000 0.0000000000000000 0.0
0.0000000000000000 0.0000000000000000 0.0
1.0000000000000000 0.0000000000000000 0.0
1.0000000000000000 0.0000000000000000 0.0
1.0000000000000000 0.0000000000000000 0.0
1.0000000000000000 0.0000000000000000 0.0
1.0000000000000000 0.0000000000000000 0.0
1.0000000000000000 0.0000000000000000 0.0
1.0000000000000000 0.0000000000000000 0.0
1.0000000000000000 0.0000000000000000 0.0
1.0000000000000000 0.0000000000000000 0.0
0.0000000000000000 0.0000000000000000 0.0
0.0000000000000000 0.0000000000000000 0.0
0.0000000000000000 0.0000000000000000 0.0
0.0000000000000000 0.0000000000000000 0.0
0.0000000000000000 0.0000000000000000 0.0
0.0000000000000000 0.0000000000000000 0.0
0.0000000000000000 0.0000000000000000 0.0
0.0000000000000000 0.0000000000000000 0.0
0.0000000000000000 0.0000000000000000 0.0
0.0000000000000000 0.0000000000000000 0.0
0.0000000000000000 0.0000000000000000 0.0
0.0000000000000000 0.0000000000000000 0.0
0.0000000000000000 0.0000000000000000 0.0
0.0000000000000000 0.0000000000000000 0.0
0.0000000000000000 0.0000000000000000 0.0
0.0000000000000000 0.0000000000000000 0.0
0.0000000000000000 0.0000000000000000 0.0
0.0000000000000000 0.0000000000000000 0.0
0.0000000000000000 0.0000000000000000 0.0
0.0000000000000000 0.0000000000000000 0.0
0.0000000000000000 0.0000000000000000 0.0
0.0000000000000000 0.0000000000000000 0.0
0.0000000000000000 0.0000000000000000 0.0
0.0000000000000000 0.0000000000000000 0.0
0.0000000000000000 0.0000000000000000 0.0
0.0000000000000000 0.0000000000000000 0.0
0.0000000000000000 0.0000000000000000 0.0
0.0000000000000000 0.0000000000000000 0.0
0.0000000000000000 0.0000000000000000 0.0
0.0000000000000000 0.0000000000000000 0.0
0.0000000000000000 0.0000000000000000 0.0
0.0000000000000000 0.0000000000000000 0.0
0.0000000000000000 0.0000000000000000 0.0
0.0000000000000000 0.0000000000000000 0.0
0.0000000000000000 0.0000000000000000 0.0
0.0000000000000000 0.0000000000000000 0.0
0.0000000000000000 0.0000000000000000 0.0
0.0000000000000000 0.0000000000000000 0.0
0.0000000000000000 0.0000000000000000 0.0
0.0000000000000000 0.0000000000000000 0.0
0.0000000000000000 0.0000000000000000 0.0
0.0000000000000000 0.0000000000000000 0.0
0.0000000000000000 0.0000000000000000 0.0
0.0000000000000000 0.0000000000000000 0.0
0.0000000000000000 0.0000000000000000 0.0
0.0000000000000000 0.0000000000000000 0.0
0.0000000000000000 0.0000000000000000 0.0
0.0000000000000000 0.0000000000000000 0.0
0.0000000000000000 0.0000000000000000 0.0
1.0710853363277961 -0.4614970430779858 0.0
0.9668628388998104 -0.1939585498096292 0.0
0.9836841999592575 -0.0285132130437273 0.0
1.0704543364039296 0.3841894521011473 0.0
1.3222043810733262 0.0030617632938324 0.0
1.4010408447627760 -0.0793344079759675 0.0
1.4330112067946836 -0.1689023898577526 0.0
1.2309728541164420 -0.0980129921214398 0.0
1.3267879314059108 -0.0828121353399365 0.0
1.5160478566091979 -0.1122467245788488 0.0
1.5804536571628458 -0.0283635583005466 0.0
1.5277208569152108 0.0191104627201281 0.0
1.5818988862709331 0.0948910987001465 0.0
1.5080831024940966 -0.1201559221818310 0.0
1.2044227689859504 0.0007410148221530 0.0
1.3358890395289778 -0.0996143449908619 0.0
1.2315651800193632 0.2158913617556517 0.0
1.5822013987385184 0.0710844390513397 0.0
1.5609161924581969 0.0109494152229176 0.0
1.1754701581045235 -0.0525518486194342 0.0
1.2694801776942155 -0.0312398204762667 0.0
1.1670156088327268 -0.0482236246212952 0.0
1.5280099275266117 -0.0559094155979553 0.0
1.5807201116442200 0.0537592677923410 0.0
1.1889221502846827 0.0875557773422627 0.0
1.1515470384547033 -0.2318508951569909 0.0
1.4963630850480099 0.0151234284077894 0.0
1.4965230294780272 -0.0180102247991413 0.0
1.5259911521829337 0.0354678203299292 0.0
1.5479478014494690 0.0132938369899991 0.0
1.3235765521580860 -0.1203683762897211 0.0
1.4875047827172616 0.0093706437151037 0.0
1.6542376454878540 0.0253162792730010 0.0
1.3562736801585955 0.1303728819500166 0.0
1.3878646514363018 -0.0414189334390105 0.0
1.3793154082463774 -0.0474904211766915 0.0
1.3251366236134976 -0.1447993497635238 0.0
1.5062537435016294 0.0927104681905314 0.0
1.5123342716986068 0.0020361374893006 0.0
1.6250860873608532 -0.1059186344536230 0.0
1.6830186886230929 -0.0383905572455392 0.0
1.2091591012332039 -0.0891994067474680 0.0
1.5894512326283068 -0.0198273421698714 0.0
1.0096976697797193 0.0540852122537819 0.0
0.8963218900807138 0.0280860093928903 0.0
1.3792667029594423 -0.0523383546093616 0.0
0.9171389767953527 0.0186191824220430 0.0
0.9002720856134068 -0.0503151003296526 0.0
1.0238288070628576 0.0366169088159377 0.0
1.2958694126388484 -0.0459359841486348 0.0
1.7998274267219154 -0.1357652381770125 0.0
1.2795948005776578 0.0003935671325673 0.0
1.0005299077866026 -0.0670103349954587 0.0
1.4118554061834785 -0.0973159338514388 0.0
1.3654404234292425 0.0399977697026974 0.0
1.3255726359717688 0.0021553020507741 0.0
1.2219525852947231 -0.0209959304374271 0.0
1.0781213657646973 -0.0575575877145852 0.0
1.0902777966918471 0.0119997752633522 0.0
1.2511584308542665 0.0227006289840246 0.0
1.4492196928946288 -0.0623011381047092 0.0
1.2291195241094695 -0.0283608221818381 0.0
1.2059916511946835 -0.2056989277341137 0.0
1.1310160272729015 0.3319854118914855 0.0
1.0966281271151972 0.1914312738412128 0.0
1.4007054581850571 -0.0690135351926440 0.0
1.2865950508046637 0.0836605739902966 0.0
1.4008561753809499 0.0547142196328336 0.0
1.2315727472647284 0.0211933910955328 0.0
1.7382731812389751 0.0678891105228037 0.0
1.4822012151200112 -0.0090245869325300 0.0
1.3484922024533039 -0.0536973112464551 0.0
0.9396057893440890 0.0032481609549384 0.0
1.1050767280537821 -0.0171243465947919 0.0
1.6047327656980428 -0.1332404618558177 0.0
1.3100719750052439 0.0494680099919964 0.0
1.4471686853552708 0.0710596676514925 0.0
1.3567456473159958 -0.0464596313784439 0.0
1.2427393057138514 -0.0433586772727112 0.0
1.5371672088986850 -0.0422715167895306 0.0
1.6084588277042273 0.0407117978904470 0.0
1.3446380930172770 0.0146226214542783 0.0
1.3853182508493005 -0.0848256161802278 0.0
1.0839302353529425 -0.0885762104729356 0.0
0.9898206786385532 -0.0083290578653109 0.0
1.4889209938896808 -0.1681678354297029 0.0
1.2377028899586999 -0.0987699832660943 0.0
1.5842772145497224 0.0134572851819851 0.0
0.6265993613636096 0.0277559873460331 0.0
0.8884076745197715 0.0943799261012507 0.0
1.6626176465402400 0.0134709916643889 0.0
1.2468818050321802 -0.0068682875468649 0.0
0.9031481140627315 0.0188517964119558 0.0
1.3043381230016504 -0.0893271440631544 0.0
1.1939681619828579 0.0055571388533431 0.0
1.1151422096329029 -0.2747320590021502 0.0
0.8440640864316222 0.0371525002924890 0.0
1.5932096820160035 0.0112067744401190 0.0
1.6636885131103196 -0.0095278983610976 0.0
0.8690064182397470 0.0910732270769712 0.0
1.6067380876978892 0.0560322874666493 0.0
1.0916439191410241 -0.1974708110116382 0.0
1.2226729732140187 0.0328460640814854 0.0
1.1043762946235303 -0.0405944531463633 0.0
1.2311581788957029 0.0154415252024626 0.0
1.6693947922151218 -0.0220347238736753 0.0
1.4255737135709665 -0.2091957280631951 0.0
1.4465772583591270 0.0448407116039964 0.0
1.4488125561425622 0.0882729268989697 0.0
1.3473022109139281 -0.0512199171881815 0.0
0.7459505854261139 -0.0905604289223919 0.0
1.4086827014893843 -0.1479160408297450 0.0
0.6599845326762734 -0.0057647638828935 0.0
1.2491001173984302 -0.0668030566593134 0.0
1.0484030740493642 0.0222872971623220 0.0
1.2394660403619715 -0.0221351836854122 0.0
1.1682250973205872 0.2313096811964668 0.0
1.2620631978694925 0.0886614432934555 0.0
0.7477976354888966 0.0051852282351582 0.0
1.2268755698430731 -0.0748680674038877 0.0
0.7082786810145381 0.0037450876773039 0.0
1.6548794844768375 0.0019547119767549 0.0
1.0153276812440584 0.0772514602929945 0.0
1.3329991602030560 -0.1175904167423406 0.0
1.1378475953081213 0.0013040092392269 0.0
1.4803057744502863 -0.1412802418071332 0.0
0.5815961503960081 -0.0438728515542111 0.0
1.1799282389669048 -0.0783974758388485 0.0
1.2014004593613024 -0.1064966975201315 0.0
1.2840689877048286 -0.1009986736670696 0.0
1.6356691851876473 -0.0139654152794033 0.0
1.6036875773148844 0.0499311797995252 0.0
0.9216835375455146 0.0664033111443403 0.0
1.2418212814425806 -0.0440964339916509 0.0
0.7554726814966142 0.1029594233701168 0.0
0.5957915946886202 -0.0029164487372010 0.0
0.4639445643421345 0.0242202367124578 0.0
1.3965508869058085 -0.0894080170547627 0.0
0.5941927624915384 0.1653066480393790 0.0
0.7028636155641409 -0.0060910253036139 0.0
1.5536501778085128 0.0236593893559072 0.0
1.2950216073763821 -0.0560656036900449 0.0
1.2095525411430095 -0.0394801550823221 0.0
1.5660227399625517 0.0666326435918648 0.0
1.3805139533777537 -0.0665713738034111 0.0
1.5711989958622383 0.0293349692949493 0.0
1.1818823840426367 0.0557950259671449 0.0
1.1179784464888505 -0.2447548272915467 0.0
1.2075969193926273 0.1641059736482403 0.0
1.1087451281790368 0.2309090210894671 0.0
1.0737721906268562 -0.0463277155871835 0.0
1.1845508626277959 0.0253758318593900 0.0
0.9319393076242396 0.0421461576633975 0.0
0.6070063551408529 0.1470824464500262 0.0
0.9917267500271101 -0.0116984365027011 0.0
1.3619789114800516 -0.0368156747617558 0.0
0.7664271858786296 0.0676106236903457 0.0
1.2123907511894829 0.0496286143324690 0.0
1.4059529960828270 -0.0608265932753657 0.0
0.9032070719424156 -0.0171968844295141 0.0
1.2624993576490267 0.0317512917530496 0.0
1.5228394870772968 0.0498860182261039 0.0
1.1958151179565049 -0.1688510200044600 0.0
1.3062634814841492 -0.1020771828910901 0.0
0.5514378714951268 0.1434025804397672 0.0
0.5508451392229263 0.1148185269766935 0.0
0.8402307768598057 -0.0133762549499575 0.0
1.4651946762415380 -0.0829429032799574 0.0
1.4044709937582602 -0.0756265718957230 0.0
0.5800652483980192 0.1648054714141291 0.0
0.7047772689161178 -0.0548804252865404 0.0
1.1211450609142386 0.0209127481573777 0.0
1.4500981155026704 -0.1046313002603586 0.0
0.9841185369213616 -0.0131492022539249 0.0
1.2774817653014185 0.0108391001376893 0.0
1.3620521385773412 -0.0783605536351022 0.0
0.9644148016202850 0.0082733372350210 0.0
0.8739440942734474 0.0708108269965158 0.0
1.3264171025586113 -0.0008764157846106 0.0
0.7706885616330011 -0.0263572707789096 0.0
1.5630797929675391 -0.0255946799422934 0.0
0.7670983295968529 0.0218381200910924 0.0
0.7737648183692049 -0.0294759751976246 0.0
1.2876803381154729 -0.0755162931747126 0.0
1.3608122221198489 -0.0121887169672211 0.0
0.9913803212974647 0.0107259582893800 0.0
0.6231270276654602 0.1861448572172680 0.0
0.9118159514528387 -0.0046837135467901 0.0
1.1729838067242591 -0.0473129524510578 0.0
0.8191783552328628 0.0928632495075305 0.0
1.1820607382894921 0.1328564310463907 0.0
1.1108364104939001 -0.0258605340507636 0.0
0.6810875658437527 0.0183437096906783 0.0
1.5178254381362530 -0.0204917399630973 0.0
0.9056398593365813 -0.0119589791180093 0.0
1.5417877149492429 -0.0246675147468326 0.0
0.4523135925486307 -0.0358078297858660 0.0
1.4327174605653281 -0.1650022414666370 0.0
1.5918984306950335 -0.0126257377980140 0.0
0.5774399837347747 0.1155966569680615 0.0
0.7800248880746882 -0.0246957181529356 0.0
1.5819573511401874 0.0686408645437018 0.0
0.9365823479549557 0.0905907871911305 0.0
1.5600886433348680 0.0561684554930857 0.0
1.0220714699487461 -0.0210746869303105 0.0
0.8014884047331463 -0.0590461336852047 0.0
0.6845586830485307 -0.0310649845254449 0.0
1.0193570508756160 -0.0257114644657139 0.0
1.0025646843070828 0.0297208747056000 0.0
1.4557880919888528 0.0135952332653621 0.0
0.5607813127434587 0.0371070873789480 0.0
0.8809357753912838 -0.0613399494708602 0.0
0.8517194815609859 0.0509987765191414 0.0
1.4236558850693299 0.0787403868203967 0.0
0.8024861223649492 -0.1989226803691072 0.0
0.8295000398944158 -0.0261776929347523 0.0
0.5254930742431172 -0.0484848916484224 0.0
1.0730984945966047 0.0163283085901562 0.0
0.7216556916459330 0.1918923248322589 0.0
0.9024135619166088 0.0435858702298681 0.0
1.2652924941387933 -0.1235463100905691 0.0
0.7647219329237935 -0.0183598987911775 0.0
0.9015216995149382 -0.0017831735061811 0.0
1.0251257564662026 -0.0164104116553780 0.0
0.7921009932811132 -0.0304851227845824 0.0
0.7685081179319186 -0.0449129684704786 0.0
1.4879757461252967 0.0261216590821655 0.0
0.8010002478154342 -0.0318901071807598 0.0
1.0382849971967905 -0.0736460489684451 0.0
0.8395810297616962 0.0547586705994014 0.0
1.2996225958473717 -0.0426458411038878 0.0
0.6366118673131618 -0.0178759688180266 0.0
0.4170147535344010 0.0065918727610216 0.0
1.1772227463163976 -0.0832707266733805 0.0
0.8365442758887562 0.1021310872184703 0.0
0.7949852639248008 -0.0164818491459592 0.0
0.9595845288005582 0.0564085978994058 0.0
1.3125439388415081 -0.0275425617918837 0.0
0.6564347479773246 -0.0206288688953896 0.0
1.2142150366036317 0.1875296137536442 0.0
1.4984484956261339 0.0052569543720115 0.0
0.7108680708433437 -0.0126160898589135 0.0
1.1427150003791036 0.0044421209108989 0.0
1.2634075460938028 -0.0587036046718413 0.0
1.1092645811017710 -0.0484196732840372 0.0
1.4016941680658537 -0.1182814240787845 0.0
0.4848147269773236 0.2066959040611549 0.0
1.7293206732890707 0.0212240388420009 0.0
1.3245269900405334 0.0286788416105709 0.0
0.5617868477515846 0.0508560548135127 0.0
1.4345631204935010 -0.1401321872901408 0.0
1.5051662177774272 -0.0908190948660558 0.0
0.6401391863834979 -0.0070705541248451 0.0
1.0241134009105346 -0.0110266095668319 0.0
0.6728482363948001 -0.0388884974654796 0.0
0.9513892194474077 -0.0773892145805526 0.0
0.7843400147517323 -0.0532142614971879 0.0
0.4152913930670538 0.2104597649245816 0.0
1.1325886978401964 0.2323922093239041 0.0
1.5951857837705470 0.0100839600943202 0.0
0.5866709956217139 0.2170351848995424 0.0
1.5764927544582823 -0.0616989584153738 0.0
1.7458295294320501 0.0979289760927119 0.0
0.5542371806170183 0.2077914064659475 0.0
1.4825094333301740 0.0451648982529337 0.0
1.4117582200531438 -0.1394820303338359 0.0
0.9257974975419584 0.2491568764412224 0.0
1.2908332361589365 -0.0199112831067678 0.0
1.3196709338373616 0.0204534745041964 0.0
0.7802486120019810 0.0898828191091328 0.0
1.3392253118648503 -0.1131964790614059 0.0
0.6985927097178312 -0.0565613007473931 0.0
0.5992966529498214 0.1922148421442079 0.0
0.4197327275267446 0.0223377987841977 0.0
1.2158634660925465 -0.0257343946368863 0.0
0.8850630986806166 -0.2751672831713415 0.0
1.4173126819429980 0.1007486339643539 0.0
1.2960310713862526 -0.1069940996439891 0.0
0.5615936377336420 -0.0116536365935584 0.0
0.5830461184486462 0.0483892916997264 0.0
0.6998046044662577 0.0179784462740528 0.0
1.1444557501414017 0.0078557216638101 0.0
1.2030189568667897 0.2878460096710677 0.0
0.5663128322315443 -0.0336984283086783 0.0
1.1423853203811745 -0.0557904879462414 0.0
0.5933189771958643 0.0407616271657804 0.0
1.5698654013743991 0.0401440647102622 0.0
0.4647033890894504 0.2462690763985476 0.0
0.7440336703616052 -0.1215542656926393 0.0
1.5403891533307559 -0.0447204698163230 0.0
1.2548549591832936 0.0372316986799650 0.0
1.5142419579696691 -0.1363434618084177 0.0
0.6841100471698554 0.0059536032690844 0.0
0.8714063680486266 -0.0341267078381611 0.0
1.4565008671347213 -0.1039189528572274 0.0
1.3789126236083753 -0.0767209003889690 0.0
1.0234300387690478 0.0632782229214087 0.0
1.4485282365681227 0.0371200894905046 0.0
1.3254255290307011 -0.0720336607642688 0.0
1.2657386640053288 0.1410447273724139 0.0
0.8694011311874031 -0.0077183697753426 0.0
0.7437150206190549 -0.0212952624317833 0.0
0.6756778349820259 -0.0462540879188691 0.0
1.3170882437516962 -0.0704915803071980 0.0
1.3178541952307363 -0.0602280402537192 0.0
1.1317540961669483 0.1154700791442353 0.0
0.3489526814880952 0.0302332303559838 0.0
1.4372247152547022 -0.0937310175567801 0.0
0.3115995094403676 0.1117916377459450 0.0
0.6908721199042492 0.1212274365281190 0.0
1.0816596013132671 0.0312124433034024 0.0
0.5386727041096717 -0.1147237979650312 0.0
1.1466464004179573 -0.3149431069180908 0.0
1.3730920401517439 -0.0721458420599784 0.0
1.6094575291653312 -0.0185322880518648 0.0
0.7312548426522381 0.1117730256647197 0.0
1.5218257236788930 -0.0616033915780483 0.0
0.9302218976554425 -0.0331172832985952 0.0
1.3835934495976108 -0.0605309011041115 0.0
0.9324089991850437 -0.0256450637748857 0.0
0.5015646030363107 0.2050296571569232 0.0
0.9086422016837856 -0.0550714866543780 0.0
1.0267794476125005 -0.0642361641008396 0.0
1.5672038830429045 -0.0464395154537312 0.0