# vtk DataFile Version 3.0
LucasCarvalhoTCC Results
ASCII

DATASET POLYDATA
FIELD FieldData 1
TIME 1 1 double
0.30000000000000004

POINTS 600 float
0.0 2.0 0.0
0.25 1.989125 0.0
0.5 1.958 0.0
0.75 1.908875 0.0
1.0 1.844 0.0
1.25 1.765625 0.0
1.5 1.676 0.0
1.75 1.577375 0.0
2.0 1.472 0.0
2.25 1.362125 0.0
2.5 1.25 0.0
2.75 1.137875 0.0
3.0 1.028 0.0
3.25 0.922625 0.0
3.5 0.8240000000000001 0.0
3.75 0.734375 0.0
4.0 0.6560000000000001 0.0
4.25 0.5911249999999999 0.0
4.5 0.542 0.0
4.75 0.510875 0.0
5.0 0.5 0.0
5.25 0.5036250000000004 0.0
5.5 0.5140000000000002 0.0
5.75 0.5303750000000003 0.0
6.0 0.5519999999999996 0.0
6.25 0.578125 0.0
6.5 0.6080000000000005 0.0
6.75 0.6408749999999999 0.0
7.0 0.6760000000000002 0.0
7.25 0.7126249999999992 0.0
7.5 0.75 0.0
7.75 0.7873750000000004 0.0
8.0 0.8239999999999994 0.0
8.25 0.8591250000000001 0.0
8.5 0.8919999999999999 0.0
8.75 0.921875 0.0
9.0 0.9479999999999991 0.0
9.25 0.9696250000000011 0.0
9.5 0.9859999999999984 0.0
9.75 0.9963750000000013 0.0
10.0 1.0 0.0
0.0 0.0 0.0
10.0 0.0 0.0
0.124999999999674 1.994562500000014 0.0
0.3749999999999947 1.973562500000001 0.0
0.6249999999999918 1.933437500000002 0.0
0.874999999999979 1.876437500000006 0.0
1.124999999999963 1.804812500000012 0.0
1.374999999999944 1.72081250000002 0.0
1.624999999999985 1.626687500000006 0.0
1.874999999999953 1.52468750000002 0.0
2.124999999999936 1.417062500000028 0.0
2.374999999999952 1.306062500000022 0.0
2.624999999999919 1.193937500000036 0.0
2.87499999999992 1.082937500000035 0.0
3.124999999999946 0.9753125000000229 0.0
3.374999999999948 0.8733125000000204 0.0
3.624999999999972 0.77918750000001 0.0
3.874999999999963 0.6951875000000118 0.0
4.124999999999968 0.6235625000000082 0.0
4.394409538298571 0.5627485257243309 0.0
4.583333333333322 0.5316250000000015 0.0
4.666666666666668 0.5212499999999999 0.0
4.833333333333334 0.50725 0.0
4.916666666666667 0.503625 0.0
5.083333333333334 0.5012083333333335 0.0
5.166666666666666 0.502416666666667 0.0
5.333333333333334 0.5070833333333337 0.0
5.416666666666667 0.510541666666667 0.0
5.583333333333334 0.5194583333333336 0.0
5.666666666666666 0.5249166666666669 0.0
5.833333333333338 0.5375833333333339 0.0
5.916666666666661 0.544791666666666 0.0
6.105781577147724 0.5630541748119369 0.0
6.375 0.5930625000000003 0.0
6.624999999999988 0.6244374999999988 0.0
6.874999999999994 0.6584374999999991 0.0
7.125 0.6943124999999997 0.0
7.375 0.7313124999999996 0.0
7.624999999999994 0.7686874999999992 0.0
7.875 0.8056874999999999 0.0
8.125 0.8415624999999998 0.0
8.374999999999991 0.8755624999999989 0.0
8.624999999999995 0.9069374999999993 0.0
8.874999999999995 0.9349374999999991 0.0
9.125 0.9588125000000001 0.0
9.375 0.9778124999999998 0.0
9.625 0.9911874999999999 0.0
9.875 0.9981875000000007 0.0
0.0 1.799999999999167 0.0
0.0 1.6 0.0
0.0 1.400000000001387 0.0
0.0 1.200000000002774 0.0
0.0 1.000000000004117 0.0
0.0 0.8000000000033287 0.0
0.0 0.6000000000024965 0.0
0.0 0.4000000000016644 0.0
0.0 0.200000000000832 0.0
0.199999999999856 0.0 0.0
0.3999999999996677 0.0 0.0
0.5999999999994683 0.0 0.0
0.7999999999993286 0.0 0.0
0.9999999999991888 0.0 0.0
1.199999999999033 0.0 0.0
1.399999999998576 0.0 0.0
1.599999999997992 0.0 0.0
1.799999999997408 0.0 0.0
1.999999999996825 0.0 0.0
2.199999999996241 0.0 0.0
2.399999999995657 0.0 0.0
2.599999999995073 0.0 0.0
2.79999999999449 0.0 0.0
2.999999999993906 0.0 0.0
3.199999999993322 0.0 0.0
3.399999999992738 0.0 0.0
3.599999999992154 0.0 0.0
3.799999999991571 0.0 0.0
3.999999999991022 0.0 0.0
4.199999999991187 0.0 0.0
4.399999999991491 0.0 0.0
4.599999999991795 0.0 0.0
4.799999999992099 0.0 0.0
4.999999999992403 0.0 0.0
5.199999999992706 0.0 0.0
5.39999999999301 0.0 0.0
5.599999999993313 0.0 0.0
5.799999999993618 0.0 0.0
5.999999999993922 0.0 0.0
6.199999999994227 0.0 0.0
6.39999999999453 0.0 0.0
6.599999999994833 0.0 0.0
6.799999999995138 0.0 0.0
6.999999999995442 0.0 0.0
7.199999999995747 0.0 0.0
7.39999999999605 0.0 0.0
7.599999999996353 0.0 0.0
7.799999999996658 0.0 0.0
7.999999999996962 0.0 0.0
8.199999999997265 0.0 0.0
8.399999999997569 0.0 0.0
8.599999999997873 0.0 0.0
8.799999999998176 0.0 0.0
8.99999999999848 0.0 0.0
9.199999999998786 0.0 0.0
9.399999999999089 0.0 0.0
9.599999999999392 0.0 0.0
9.799999999999697 0.0 0.0
10.0 0.1999999999995579 0.0
10.0 0.3999999999989749 0.0
10.0 0.5999999999989468 0.0
10.0 0.7999999999994734 0.0
0.913963423524136 0.9126937851647636 0.0
1.629657910441747 0.8286436141773268 0.0
2.300136613917738 0.6369890708869279 0.0
0.5989085226155619 1.38125543468559 0.0
1.274155622640533 1.242773398230304 0.0
2.860215383945273 0.5217401976756945 0.0
9.469653920408135 0.4910067017840992 0.0
8.984679546317787 0.4696119782494839 0.0
8.499397693277212 0.4463630640980716 0.0
3.270918412356206 0.4522692359356972 0.0
1.223039611612243 0.5146439900227544 0.0
2.024812732135938 1.00818256045515 0.0
0.5365376864627701 0.5434316309416508 0.0
8.114834335444021 0.4602948767329583 0.0
7.742261962994204 0.4117304941858466 0.0
0.9443382341364558 1.456061359265878 0.0
1.665275621558886 1.201744468407863 0.0
1.89566112584099 0.4397284596316843 0.0
3.691409759982064 0.3560936332572802 0.0
7.368457390036411 0.3792926046732459 0.0
0.5071184951703254 0.9340893429149442 0.0
0.3822273842356539 1.647625881691675 0.0
5.916285335387544 0.2564903116750689 0.0
5.628860531758535 0.2582323053999509 0.0
5.380471017960128 0.2502349014663197 0.0
5.139244585769944 0.2549145445969738 0.0
2.686085237972266 0.8031095648160084 0.0
4.507599040026292 0.263176944655695 0.0
6.983755234374982 0.3380000000001097 0.0
9.720925955181613 0.6635813325201156 0.0
1.288006195687152 0.8759679848503046 0.0
9.20556379558699 0.6923669083350594 0.0
2.319913492084225 0.9512500928262699 0.0
8.73203612228155 0.6151508464420534 0.0
4.868679481352366 0.2526598053940744 0.0
4.10358044398202 0.3012437332986487 0.0
6.602422946953217 0.3126221952225479 0.0
2.534693527909069 0.3583319619586092 0.0
6.193332317503376 0.2894654215336858 0.0
0.8804088217382579 0.3735513844182569 0.0
0.7663303172393539 1.679065267574722 0.0
3.081211528283084 0.6968015573146217 0.0
1.241762689885858 1.521465072418641 0.0
1.573472750763779 0.3374689934575129 0.0
1.475107933015155 1.403918544935278 0.0
0.8212739503602162 1.195790902469637 0.0
4.681049549092561 0.3558177014380842 0.0
9.439519900118443 0.7366884444350511 0.0
2.201393787062887 0.3261463175998884 0.0
2.015369189818184 0.7109460688851087 0.0
8.32727069655695 0.6360373328685593 0.0
8.961488632119996 0.7119124617705204 0.0
9.22773266034565 0.3109430611770705 0.0
0.3000513553073295 1.178778127105867 0.0
1.91985473842554 1.233084801189704 0.0
8.749827252515535 0.3049638092131281 0.0
3.50551132590258 0.5576614504134195 0.0
3.040500962406976 0.290446660105673 0.0
9.72097519930939 0.3037986529514364 0.0
0.3073166349239687 0.3249300260882615 0.0
0.2948185331392187 0.7229775107826154 0.0
1.46029425821417 1.06552904833304 0.0
0.8085718129253527 0.673531272847494 0.0
7.913326191751847 0.5738936378911789 0.0
8.295349499871781 0.2556682497524391 0.0
4.31359646688283 0.3665214152100782 0.0
7.542842082022704 0.5249918217576657 0.0
1.058357552227335 1.116692590939024 0.0
2.214297272750292 1.159898327391242 0.0
2.901187336648686 0.8282146771898153 0.0
3.933498145061447 0.4325241689837319 0.0
7.956006969037984 0.2667411694088205 0.0
7.172393179434975 0.4835114022190097 0.0
1.440243631802057 0.6689433452646625 0.0
3.458541882144431 0.2581755850286561 0.0
5.791617360065465 0.3978542524532168 0.0
5.981529865241493 0.3900667299390458 0.0
1.083462543944253 0.7203994120564634 0.0
1.78518471978951 1.008552691762234 0.0
2.77360122246243 0.2689852172070111 0.0
2.565134389978369 0.9928826788184764 0.0
2.543046005790158 0.6034091352176242 0.0
3.293038780485421 0.6769811703257343 0.0
6.790787388653942 0.4353933509634578 0.0
1.140204059461831 0.2538227257007896 0.0
0.6242104065654487 0.2738473600765566 0.0
6.393430278703709 0.3766405270445946 0.0
8.533059390324546 0.6950580701614406 0.0
0.9961263693263854 1.612128843772703 0.0
1.697598586607002 0.5781950992180334 0.0
8.087930458724863 0.6517815437732153 0.0
0.2748906317360928 1.770749713716887 0.0
0.5785110002099415 1.757022387413085 0.0
5.550004842562332 0.3852675728674634 0.0
4.948161884155141 0.3480305424737933 0.0
1.741244734175577 1.381979611033466 0.0
5.312408927381063 0.3621256994047111 0.0
0.2492139438157334 1.453132031680879 0.0
7.597720022451821 0.2370268512906596 0.0
9.471021754366422 0.2472916581956264 0.0
7.714083843672875 0.600212897672991 0.0
4.520815862079482 0.3946753115680038 0.0
2.47356661122767 0.8007389356831706 0.0
7.325494311403363 0.528948935030723 0.0
7.147005275585743 0.2709670165999667 0.0
3.758046446289313 0.5474783841545341 0.0
3.893717059615281 0.1664960777568404 0.0
2.152835534199412 0.8614028741175742 0.0
8.995993312441625 0.1933410497113667 0.0
1.077676137392001 1.368204555688504 0.0
0.2429906229817933 0.9816066505657851 0.0
0.6261765586985547 1.180540007244081 0.0
9.81151801018651 0.816223424030724 0.0
0.6725442903064565 0.8425384371773644 0.0
1.74584086891446 0.2617492458514414 0.0
0.7667820686164357 1.440842670056678 0.0
8.539133693395232 0.1910926418035274 0.0
5.129145653242096 0.3632579123815574 0.0
6.816538849831732 0.2013284992826486 0.0
2.108503954619862 0.5359795950847274 0.0
6.933669557130528 0.4980836483776163 0.0
3.071406705674529 0.4919421055852253 0.0
2.001240035874449 0.2292738462614773 0.0
4.782473531509697 0.4061213127162872 0.0
0.5734126310178208 1.536352720889636 0.0
9.796714529589472 0.4898048068674991 0.0
5.678359041645315 0.373719883316694 0.0
5.427661572827738 0.3646059266294788 0.0
2.075214597532947 1.226969224366912 0.0
3.251521478555126 0.2637671977660283 0.0
2.722180837291864 0.9710783334409533 0.0
9.333262390342384 0.8479609887828539 0.0
1.367251332770493 0.2041553944563636 0.0
1.870721433742522 0.7905989208842599 0.0
1.387906762913351 1.555741687747287 0.0
9.559918612869 0.8444052974080497 0.0
9.286795039366257 0.4698254290795815 0.0
[...]
POINT_DATA 600

VECTORS Velocity float
0.0000000000000000 0.0000000000000000 0.0
0.0000000000000000 0.0000000000000000 0.0
0.0000000000000000 0.0000000000000000 0.0
0.0000000000000000 0.0000000000000000 0.0
0.0000000000000000 0.0000000000000000 0.0
0.0000000000000000 0.0000000000000000 0.0
0.0000000000000000 0.0000000000000000 0.0
0.0000000000000000 0.0000000000000000 0.0
0.0000000000000000 0.0000000000000000 0.0
0.0000000000000000 0.0000000000000000 0.0
0.0000000000000000 0.0000000000000000 0.0
0.0000000000000000 0.0000000000000000 0.0
0.0000000000000000 0.0000000000000000 0.0
0.0000000000000000 0.0000000000000000 0.0
0.0000000000000000 0.0000000000000000 0.0
0.0000000000000000 0.0000000000000000 0.0
0.0000000000000000 0.0000000000000000 0.0
0.0000000000000000 0.0000000000000000 0.0
0.0000000000000000 0.0000000000000000 0.0
0.0000000000000000 0.0000000000000000 0.0
0.0000000000000000 0.0000000000000000 0.0
0.0000000000000000 0.0000000000000000 0.0
0.0000000000000000 0.0000000000000000 0.0
0.0000000000000000 0.0000000000000000 0.0
0.0000000000000000 0.0000000000000000 0.0
0.0000000000000000 0.0000000000000000 0.0
0.0000000000000000 0.0000000000000000 0.0
0.0000000000000000 0.0000000000000000 0.0
0.0000000000000000 0.0000000000000000 0.0
0.0000000000000000 0.0000000000000000 0.0
0.0000000000000000 0.0000000000000000 0.0
0.0000000000000000 0.0000000000000000 0.0
0.0000000000000000 0.0000000000000000 0.0
0.0000000000000000 0.0000000000000000 0.0
0.0000000000000000 0.0000000000000000 0.0
0.0000000000000000 0.0000000000000000 0.0
0.0000000000000000 0.0000000000000000 0.0
0.0000000000000000 0.0000000000000000 0.0
0.0000000000000000 0.0000000000000000 0.0
0.0000000000000000 0.0000000000000000 0.0
0.0000000000000000 0.0000000000000000 0.0
0.0000000000000000 0.0000000000000000 0.0
0.8497575888231094 -0.1071362751170198 0.0
0.0000000000000000 0.0000000000000000 0.0
0.0000000000000000 0.0000000000000000 0.0
0.0000000000000000 0.0000000000000000 0.0
0.0000000000000000 0.0000000000000000 0.0
0.0000000000000000 0.0000000000000000 0.0
0.0000000000000000 0.0000000000000000 0.0
0.0000000000000000 0.0000000000000000 0.0
0.0000000000000000 0.0000000000000000 0.0
0.0000000000000000 0.0000000000000000 0.0
0.0000000000000000 0.0000000000000000 0.0
0.0000000000000000 0.0000000000000000 0.0
0.0000000000000000 0.0000000000000000 0.0
0.0000000000000000 0.0000000000000000 0.0
0.0000000000000000 0.0000000000000000 0.0
0.0000000000000000 0.0000000000000000 0.0
0.0000000000000000 0.0000000000000000 0.0
0.0000000000000000 0.0000000000000000 0.0
0.0000000000000000 0.0000000000000000 0.0
0.0000000000000000 0.0000000000000000 0.0
0.0000000000000000 0.0000000000000000 0.0
0.0000000000000000 0.0000000000000000 0.0
0.0000000000000000 0.0000000000000000 0.0
0.0000000000000000 0.0000000000000000 0.0
0.0000000000000000 0.0000000000000000 0.0
0.0000000000000000 0.0000000000000000 0.0
0.0000000000000000 0.0000000000000000 0.0
0.0000000000000000 0.0000000000000000 0.0
0.0000000000000000 0.0000000000000000 0.0
0.0000000000000000 0.0000000000000000 0.0
0.0000000000000000 0.0000000000000000 0.0
0.0000000000000000 0.0000000000000000 0.0
0.0000000000000000 0.0000000000000000 0.0
0.0000000000000000 0.0000000000000000 0.0
0.0000000000000000 0.0000000000000000 0.0
0.0000000000000000 0.0000000000000000 0.0
0.0000000000000000 0.0000000000000000 0.0
0.0000000000000000 0.0000000000000000 0.0
0.0000000000000000 0.0000000000000000 0.0
0.0000000000000000 0.0000000000000000 0.0
0.0000000000000000 0.0000000000000000 0.0
0.0000000000000000 0.0000000000000000 0.0
0.0000000000000000 0.0000000000000000 0.0
0.0000000000000000 0.0000000000000000 0.0
0.0000000000000000 0.0000000000000000 0.0
0.0000000000000000 0.0000000000000000 0.0
0.0000000000000000 0.0000000000000000 0.0
1.0000000000000000 0.0000000000000000 0.0
1.0000000000000000 0.0000000000000000 0.0
1.0000000000000000 0.0000000000000000 0.0
1.0000000000000000 0.0000000000000000 0.0
1.0000000000000000 0.0000000000000000 0.0
1.0000000000000000 0.0000000000000000 0.0
1.0000000000000000 0.0000000000000000 0.0
1.0000000000000000 0.0000000000000000 0.0
1.0000000000000000 0.0000000000000000 0.0
0.0000000000000000 0.0000000000000000 0.0
0.0000000000000000 0.0000000000000000 0.0
0.0000000000000000 0.0000000000000000 0.0
0.0000000000000000 0.0000000000000000 0.0
0.0000000000000000 0.0000000000000000 0.0
0.0000000000000000 0.0000000000000000 0.0
0.0000000000000000 0.0000000000000000 0.0
0.0000000000000000 0.0000000000000000 0.0
0.0000000000000000 0.0000000000000000 0.0
0.0000000000000000 0.0000000000000000 0.0
0.0000000000000000 0.0000000000000000 0.0
0.0000000000000000 0.0000000000000000 0.0
0.0000000000000000 0.0000000000000000 0.0
0.0000000000000000 0.0000000000000000 0.0
0.0000000000000000 0.0000000000000000 0.0
0.0000000000000000 0.0000000000000000 0.0
0.0000000000000000 0.0000000000000000 0.0
0.0000000000000000 0.0000000000000000 0.0
0.0000000000000000 0.0000000000000000 0.0
0.0000000000000000 0.0000000000000000 0.0
0.0000000000000000 0.0000000000000000 0.0
0.0000000000000000 0.0000000000000000 0.0
0.0000000000000000 0.0000000000000000 0.0
0.0000000000000000 0.0000000000000000 0.0
0.0000000000000000 0.0000000000000000 0.0
0.0000000000000000 0.0000000000000000 0.0
0.0000000000000000 0.0000000000000000 0.0
0.0000000000000000 0.0000000000000000 0.0
0.0000000000000000 0.0000000000000000 0.0
0.0000000000000000 0.0000000000000000 0.0
0.0000000000000000 0.0000000000000000 0.0
0.0000000000000000 0.0000000000000000 0.0
0.0000000000000000 0.0000000000000000 0.0
0.0000000000000000 0.0000000000000000 0.0
0.0000000000000000 0.0000000000000000 0.0
0.0000000000000000 0.0000000000000000 0.0
0.0000000000000000 0.0000000000000000 0.0
0.0000000000000000 0.0000000000000000 0.0
0.0000000000000000 0.0000000000000000 0.0
0.0000000000000000 0.0000000000000000 0.0
0.0000000000000000 0.0000000000000000 0.0
0.0000000000000000 0.0000000000000000 0.0
0.0000000000000000 0.0000000000000000 0.0
0.0000000000000000 0.0000000000000000 0.0
0.0000000000000000 0.0000000000000000 0.0
0.0000000000000000 0.0000000000000000 0.0
0.0000000000000000 0.0000000000000000 0.0
0.0000000000000000 0.0000000000000000 0.0
0.0000000000000000 0.0000000000000000 0.0
1.0670781101284410 -0.3499337591086071 0.0
0.9885833798709864 -0.1022876766019180 0.0
0.9805383711673746 -0.0296015143411659 0.0
1.0742626007566245 0.2501093435059956 0.0
1.1205209285833326 0.0037511519877672 0.0
1.1457716705269001 -0.0313550278199894 0.0
1.1582020332906957 -0.0641872757559687 0.0
1.1146350783661099 -0.0185270824325925 0.0
1.1738001877249287 -0.0429868729948872 0.0
1.2263435959229543 -0.0497625289219314 0.0
1.2516232253618822 -0.0106574117785682 0.0
1.2645203818816366 0.0063076314359491 0.0
1.3077875794427545 0.0386949880883637 0.0
1.2713286254221738 -0.0584408375785435 0.0
1.1232802466658611 -0.0063995937511044 0.0
1.1610971911271672 -0.0556949911220769 0.0
1.0988069662708033 0.0832117683597910 0.0
1.3125106713440413 0.0382189502689760 0.0
1.3015968136119473 0.0174836639855490 0.0
1.1606763730530938 -0.0407450862742198 0.0
1.1921704170552232 -0.0498863955690873 0.0
1.1253065490224519 -0.0055738961381139 0.0
1.3889366235478089 -0.0259278636769909 0.0
1.4021865325578384 0.0054449442715215 0.0
1.0843300799900604 0.0499750940171267 0.0
1.2026978354278794 -0.0834779308096062 0.0
1.4280768937950044 0.0329575140805003 0.0
1.4293473986492440 -0.0203257171282970 0.0
1.4505451933836968 0.0227531553462414 0.0
1.4732117012019437 0.0283454786794194 0.0
1.2901147966620083 -0.1133647892302229 0.0
1.4503613136392997 -0.0238060043103706 0.0
1.5254675058655889 0.0269142090631823 0.0
1.1896488930682365 0.0535372982962699 0.0
1.1363817098884941 -0.0159447597316730 0.0
1.3130555323294912 -0.0185428474338978 0.0
1.1901536810380251 -0.0958777275215076 0.0
1.3022575041452003 0.0689911728089212 0.0
1.4529019852684570 -0.0154784375109297 0.0
1.5444283032495010 -0.0756969772301919 0.0
1.5965989714008613 -0.0494988110828536 0.0
1.1900502788107103 -0.0273592918307526 0.0
1.5078182159229783 -0.0253270180955624 0.0
1.1484157452183894 0.0289664803158553 0.0
1.1607212900706796 -0.0570211969184404 0.0
1.2806700466358925 -0.0837964045424080 0.0
1.2097830771279390 -0.0921101448525474 0.0
1.1035595053648302 -0.0496972803423210 0.0
1.2492638685893178 -0.0544291331746273 0.0
1.1275176396616022 -0.0095254606058732 0.0
1.6311287141540389 -0.1049607126537752 0.0
1.3436893272481698 0.0065734089898646 0.0
1.1332135015142568 -0.0631237937069427 0.0
1.1500836101280953 -0.0463337427060606 0.0
1.3503866370805377 0.0312399797984138 0.0
1.2892131815155397 -0.0001744697696043 0.0
1.2868711097188834 -0.0119340831211784 0.0
1.0467131170577955 0.0207187268745674 0.0
1.2368449904032388 -0.0611334411792466 0.0
1.2708556368231338 0.0074924043004658 0.0
1.3676265051977927 -0.0787820117292540 0.0
1.2489730235310281 -0.0325909645459485 0.0
1.2405050769520716 -0.1203549439373731 0.0
1.1593359850133087 0.1764378480400371 0.0
1.0400528419827093 0.1148206069399806 0.0
1.1596696817766090 -0.0315333614872995 0.0
1.1039776867688131 0.0306206137746669 0.0
1.3765791301111592 0.0576615204105770 0.0
1.2619664824255632 0.0105126432848746 0.0
1.6337016880288733 0.0414257938212517 0.0
1.3878882782941984 0.0441233404742455 0.0
1.1405964345572372 -0.0172447362496634 0.0
1.1440700449682775 -0.1123670669349515 0.0
1.2433893360824098 -0.0621047379252546 0.0
1.4630977375379717 -0.1112515740874329 0.0
1.2978897364878290 0.0519833189397560 0.0
1.3688986426979648 0.0763419213017296 0.0
1.1248777064332498 -0.0198181931714970 0.0
1.2534036288211621 -0.0221776482919638 0.0
1.4148751007090503 -0.0261622352219955 0.0
1.4516937898370972 0.0383695523943536 0.0
1.1226386145758469 0.0008461744034171 0.0
1.1651991729364510 -0.0397306232178226 0.0
1.2106679520891930 -0.0378923085934583 0.0
1.1817605286123765 -0.1473153338325230 0.0
1.1888891233177994 -0.0664123038128634 0.0
1.2934599276177379 -0.1359715219379675 0.0
1.4630719211571752 -0.0087980844006154 0.0
0.9937467207822790 0.0160287373858975 0.0
1.0964128973221308 0.0534755739046152 0.0
1.5739206365178882 0.0329864887913157 0.0
1.3061755884956718 0.0374112475907235 0.0
1.1882782286508353 -0.0609457518772799 0.0
1.1165333241681494 -0.0249008537975219 0.0
1.3037925049572465 0.0296756666590339 0.0
1.2030192190282580 -0.1658142580326142 0.0
1.1452382768655076 0.0208356583473624 0.0
1.4244821365590479 0.0122251415587990 0.0
1.4875417964975786 -0.0101548330414676 0.0
1.1771620635106457 -0.0395587095069534 0.0
1.4477027921100412 0.0409263082689983 0.0
1.0573154582230937 -0.0425247924980139 0.0
1.2630758520182035 0.0037596848941062 0.0
1.2520543266417570 -0.0192842118084580 0.0
1.3159521086594983 0.0279829725557114 0.0
1.4927951540978313 -0.0208779692913345 0.0
1.1944727281897827 -0.0986470586038282 0.0
1.3620206476737720 0.0219989776069606 0.0
1.3784231097206796 0.0515084170424881 0.0
1.3398510771817176 -0.0759217716461189 0.0
0.8208432022171411 -0.0718200053548395 0.0
1.1651568709223707 -0.0681113247076479 0.0
0.8384336715691456 -0.0038217117849268 0.0
1.1637363810903660 -0.0457365490176966 0.0
1.0385808316472454 0.0456346688048947 0.0
1.1038661362950026 0.0098333591825920 0.0
1.2197213468059553 0.1383039832818589 0.0
1.1020695819246715 0.0391884387127563 0.0
1.0350160148373133 0.0174190100454176 0.0
1.1443557438290297 -0.0272026662865891 0.0
0.8640047622518661 0.0105144617909617 0.0
1.4835609827823411 0.0124540650566532 0.0
1.0602873183977686 0.0634856998028732 0.0
1.1500633373853528 -0.0516031774223093 0.0
1.1078112606093735 0.0067899389494846 0.0
1.2417504946343545 -0.0666524845328578 0.0
0.8349888143680788 -0.0381195498394745 0.0
1.1134220903455900 -0.0367631579344415 0.0
1.1441390309249506 -0.0229008625703043 0.0
1.1429098149770158 -0.0592120729656666 0.0
1.4373985315312185 0.0021067877123584 0.0
1.4317432736026654 0.0269669307700860 0.0
1.1595026218149718 -0.0175387466043364 0.0
1.2365638341581178 -0.0269184431186146 0.0
0.9334332077929434 0.0090421410689912 0.0
0.7936262709801102 0.0019078871278402 0.0
0.7470365999877675 0.0272473552256493 0.0
1.1506297466840067 -0.0395972407252158 0.0
0.8669057268815848 0.0624688245378801 0.0
0.8874669628955733 0.0005822821990315 0.0
1.2660286092808812 -0.0074601266895872 0.0
1.1939703194023230 -0.0388535383371082 0.0
1.2855527964144200 -0.0241460568474502 0.0
1.3021702673129540 0.0268812379173469 0.0
1.1498254107879546 -0.0263331786382102 0.0
1.4427563939834069 -0.0077057766904842 0.0
1.2418455270784916 0.0638010236237547 0.0
1.0973951158190354 -0.1108952009323544 0.0
1.0810024795712405 0.0772110336364226 0.0
1.0680892474330266 0.1549966498908971 0.0
1.0547483271984006 -0.0237060506306957 0.0
1.1487890257499611 0.0162203450176685 0.0
0.9622247620566927 -0.0004241854445260 0.0
0.8453519587224463 0.0328270987924466 0.0
1.0010294081020439 -0.0054918442263153 0.0
1.1333893983940264 -0.0112246768224612 0.0
0.8543890190226148 0.0770131273807878 0.0
1.1227663431940020 0.0041235534533162 0.0
1.1446431288439403 -0.0264660891319182 0.0
1.0985960546375888 -0.0000292895705213 0.0
1.2555364520132100 0.0170439084729110 0.0
1.2763626225825409 0.0241042884965492 0.0
1.1118601762533220 -0.0289329800343656 0.0
1.1551404264241178 -0.0495963443016215 0.0
0.8265241251240638 0.0530152105149428 0.0
0.8246423316194640 0.0401750723189857 0.0
0.9118684445662527 -0.0004588797138339 0.0
1.2475985888126782 -0.0603508009315566 0.0
1.1598745204055294 -0.0364497796973053 0.0
0.8542960481404086 0.0634811822619847 0.0
0.9004736518378830 -0.0159790413160212 0.0
1.0780686106965272 0.0123604104716471 0.0
1.1923312464758526 -0.0527522705164606 0.0
1.0680791705281569 0.0212904031120400 0.0
1.1106156066511628 0.0111128831040181 0.0
1.1369924457575284 -0.0333783239036049 0.0
1.0048446910508009 0.0011196676972122 0.0
0.9699626990764295 0.0309513238668867 0.0
1.2494969027504106 -0.0118702036050997 0.0
0.9199499052062901 -0.0104543709060723 0.0
1.3246520583185719 -0.0144452960657335 0.0
0.8733132066195802 0.0231351507951294 0.0
0.8624686309103924 -0.0121795772244970 0.0
1.1434222367254114 -0.0268769338232868 0.0
1.1216775884766645 -0.0070552253522505 0.0
1.0420679248237883 0.0019131134489050 0.0
0.8689008223531225 0.0671673179334748 0.0
0.8807942662888680 0.0047991245847048 0.0
1.1294090027072075 -0.0039589606876480 0.0
0.9891389669857350 -0.0019042130641549 0.0
1.1155442994643578 0.0607685774487300 0.0
1.2253265126968260 -0.0787968209112257 0.0
0.8321379062792031 0.0176187241688997 0.0
1.2568630471577653 -0.0108703134563875 0.0
0.9989150387036322 -0.0054909605837745 0.0
1.2345737524880185 -0.0158985145957425 0.0
0.7280084446134394 -0.0267389362785567 0.0
1.1794069392815938 -0.0765441888849098 0.0
1.2854044536128573 -0.0101499921570016 0.0
0.8673905515285950 0.0464058374393141 0.0
0.8749608550502634 -0.0268104076035236 0.0
1.3019462171573579 0.0468924204229067 0.0
1.0500170377207774 0.0050286490138460 0.0
1.2954130407731601 0.0284588807575249 0.0
1.1945517923984965 -0.0647079747259182 0.0
0.9145810990928369 -0.0329935136949949 0.0
0.8854467049856611 -0.0025427474035254 0.0
1.0178969674789489 -0.0080543802288707 0.0
1.0196269345866311 0.0188326123715070 0.0
1.4243823821022474 0.0000404748334926 0.0
0.7428761684593862 0.0290569686288407 0.0
0.9351618148703826 -0.0408403590577725 0.0
0.8788435394125756 0.0368213122766842 0.0
1.3165416772386938 0.0234469213604794 0.0
0.8674663405529209 -0.1384668059308717 0.0
0.8797138008255426 -0.0088168930874965 0.0
0.7140911540899483 -0.0229074352880575 0.0
1.2152503066615274 -0.0354436962768387 0.0
0.8873992817190567 0.0910289004548125 0.0
0.9156425075379990 0.0393493393273932 0.0
1.1710922257470713 -0.0876103604005723 0.0
0.8905265746119225 0.0030350072936745 0.0
0.9596695183922729 -0.0116975130672214 0.0
1.1815435783268522 -0.0543203373743904 0.0
0.8947413847999248 -0.0075167396332510 0.0
0.8544960332286951 -0.0264794983733898 0.0
1.2462224086307858 0.0281940388909088 0.0
0.9302291280174043 -0.0114571713766091 0.0
1.0267773238611115 -0.0182938964380609 0.0
0.8615031941178768 0.0437893896575263 0.0
1.1880373480898538 -0.0595658387042922 0.0
0.7938264038909865 -0.0101411088549790 0.0
0.6733267562824745 0.0198666895960856 0.0
1.0832459085078281 0.0064383303231104 0.0
0.9601563956343774 0.0376552023549966 0.0
0.8435457439150071 -0.0077250086668682 0.0
0.9861276616659725 0.0221387986835268 0.0
1.1235509457780002 -0.0047163077224793 0.0
0.8625244711088169 -0.0145476302424520 0.0
1.1116999199866064 0.0776846995344895 0.0
1.2642676792258576 0.0015560315571877 0.0
0.7794360100544360 -0.0000496126007414 0.0
1.0726957793940828 0.0005438747146595 0.0
1.1245245561469279 -0.0130566056162872 0.0
1.1130986160972205 -0.0332569383845439 0.0
1.1608692707979111 -0.0535511786312244 0.0
0.7108112084684598 0.1200052692145313 0.0
1.5012868503659640 0.0132739247222915 0.0
1.1179391724096612 0.0111454384025481 0.0
0.7364286281804855 0.0585255010663407 0.0
1.1565374639951378 -0.0610519202496995 0.0
1.2332453081564267 -0.0758389167550429 0.0
0.8077616321825128 -0.0050575465903938 0.0
1.0245756873178922 0.0138324000916947 0.0
0.7383674610303000 -0.0279202381195486 0.0
0.9541021671877002 -0.0626759830996349 0.0
0.8405733716763852 -0.0689423049241985 0.0
0.6381341662263001 0.1355655519732267 0.0
1.1402697118157332 0.0818362750396316 0.0
1.4493006130214832 0.0262754668707309 0.0
0.7835501169535916 0.1244967635889013 0.0
1.3220228117410053 -0.0063963298101376 0.0
1.5967412455304333 0.0097093080332420 0.0
0.7830926968293093 0.1020217083630357 0.0
1.3286933567484376 0.0539027936175237 0.0
1.2596554237757125 -0.0908239257287127 0.0
0.9689256137370816 0.2049382015511876 0.0
1.2640992001939098 -0.0280172017468668 0.0
1.2957364205724713 0.0173238730469221 0.0
0.8232681118911095 0.0753113290818141 0.0
1.2575142016014027 -0.0426243444381801 0.0
0.8823436037799889 -0.0499121801020670 0.0
0.8319275293600795 0.1019471133759214 0.0
0.6496693148595833 0.0503005918168361 0.0
1.1900787526935694 -0.0238319022511600 0.0
0.9410118429459980 -0.2184533866070231 0.0
1.3131247550079752 0.0549563932784256 0.0
1.2361313695046212 -0.0332971341521663 0.0
0.7221616437585077 -0.0177675164212237 0.0
0.7443994305976134 0.0504367622489102 0.0
0.8002127635716764 0.0083640420703887 0.0
1.0745960057148918 0.0406945066365822 0.0
1.1002776696969527 0.1323867348003497 0.0
0.7425123780419379 -0.0464965407895813 0.0
1.1639753095971075 -0.0255448507086009 0.0
0.7086086806852572 0.0580011678082289 0.0
1.4486684562415220 0.0181438215438495 0.0
0.6728330135433559 0.1601393820377707 0.0
0.8716825124614631 -0.0979528334687808 0.0
1.3622707291921767 -0.0433608579445865 0.0
1.2580561562740276 0.0193965788878451 0.0
1.2233464559252367 -0.0628919336786393 0.0
0.7944064225416634 0.0033229965995662 0.0
0.9297781267848071 -0.0255846054183493 0.0
1.2565992046444912 -0.0621014717505495 0.0
1.1324686053486444 -0.0250223868189765 0.0
1.0172222731221414 0.0673097458475170 0.0
1.3100309976575379 0.0279524034342184 0.0
1.1565930130010305 -0.0310197155520542 0.0
1.0977070022119704 0.0544165557652121 0.0
1.0835009046999033 0.0090466474766884 0.0
0.8086091583125481 -0.0238019524201380 0.0
0.7590695964871502 -0.0295242134265580 0.0
1.1868018612099547 -0.0475640017471039 0.0
1.1401282506187655 -0.0306545506200380 0.0
1.0683580766228686 0.0846028466106607 0.0
0.5896538581705152 0.0366073951817064 0.0
1.3080103612105800 -0.1005894288700980 0.0
0.5433662560760780 0.0720098985179249 0.0
0.8025616274694782 0.0790788001652625 0.0
1.1995063477974508 -0.0620277301858375 0.0
0.6689036081551603 -0.1254440506308596 0.0
1.1246665732316321 -0.2071335161789163 0.0
1.1628858038971810 -0.0321047752623347 0.0
1.4190730862961833 -0.0072876044451612 0.0
0.7860869240618048 0.0800749353711144 0.0
1.4510362038661666 -0.0422304508648118 0.0
0.9535860926373828 -0.0215855978217391 0.0
1.1655687580006460 -0.0395643093834394 0.0
0.9544523720742345 -0.0181729200499611 0.0
0.7203180287799517 0.1128372777924742 0.0
0.9559145202403317 -0.0334284665515458 0.0
1.0747801648268631 -0.0294272010609977 0.0