# vtk DataFile Version 3.0
LucasCarvalhoTCC Results
ASCII

DATASET POLYDATA
FIELD FieldData 1
TIME 1 1 double
1.5

POINTS 600 float
0.0 2.0 0.0
0.25 1.989125 0.0
0.5 1.958 0.0
0.75 1.908875 0.0
1.0 1.844 0.0
1.25 1.765625 0.0
1.5 1.676 0.0
1.75 1.577375 0.0
2.0 1.472 0.0
2.25 1.362125 0.0
2.5 1.25 0.0
2.75 1.137875 0.0
3.0 1.028 0.0
3.25 0.922625 0.0
3.5 0.8240000000000001 0.0
3.75 0.734375 0.0
4.0 0.6560000000000001 0.0
4.25 0.5911249999999999 0.0
4.5 0.542 0.0
4.75 0.510875 0.0
5.0 0.5 0.0
5.25 0.5036250000000004 0.0
5.5 0.5140000000000002 0.0
5.75 0.5303750000000003 0.0
6.0 0.5519999999999996 0.0
6.25 0.578125 0.0
6.5 0.6080000000000005 0.0
6.75 0.6408749999999999 0.0
7.0 0.6760000000000002 0.0
7.25 0.7126249999999992 0.0
7.5 0.75 0.0
7.75 0.7873750000000004 0.0
8.0 0.8239999999999994 0.0
8.25 0.8591250000000001 0.0
8.5 0.8919999999999999 0.0
8.75 0.921875 0.0
9.0 0.9479999999999991 0.0
9.25 0.9696250000000011 0.0
9.5 0.9859999999999984 0.0
9.75 0.9963750000000013 0.0
10.0 1.0 0.0
0.0 0.0 0.0
10.0 0.0 0.0
0.124999999999674 1.994562500000014 0.0
0.3749999999999947 1.973562500000001 0.0
0.6249999999999918 1.933437500000002 0.0
0.874999999999979 1.876437500000006 0.0
1.124999999999963 1.804812500000012 0.0
1.374999999999944 1.72081250000002 0.0
1.624999999999985 1.626687500000006 0.0
1.874999999999953 1.52468750000002 0.0
2.124999999999936 1.417062500000028 0.0
2.374999999999952 1.306062500000022 0.0
2.624999999999919 1.193937500000036 0.0
2.87499999999992 1.082937500000035 0.0
3.124999999999946 0.9753125000000229 0.0
3.374999999999948 0.8733125000000204 0.0
3.624999999999972 0.77918750000001 0.0
3.874999999999963 0.6951875000000118 0.0
4.124999999999968 0.6235625000000082 0.0
4.394409538298571 0.5627485257243309 0.0
4.583333333333322 0.5316250000000015 0.0
4.666666666666668 0.5212499999999999 0.0
4.833333333333334 0.50725 0.0
4.916666666666667 0.503625 0.0
5.083333333333334 0.5012083333333335 0.0
5.166666666666666 0.502416666666667 0.0
5.333333333333334 0.5070833333333337 0.0
5.416666666666667 0.510541666666667 0.0
5.583333333333334 0.5194583333333336 0.0
5.666666666666666 0.5249166666666669 0.0
5.833333333333338 0.5375833333333339 0.0
5.916666666666661 0.544791666666666 0.0
6.105781577147724 0.5630541748119369 0.0
6.375 0.5930625000000003 0.0
6.624999999999988 0.6244374999999988 0.0
6.874999999999994 0.6584374999999991 0.0
7.125 0.6943124999999997 0.0
7.375 0.7313124999999996 0.0
7.624999999999994 0.7686874999999992 0.0
7.875 0.8056874999999999 0.0
8.125 0.8415624999999998 0.0
8.374999999999991 0.8755624999999989 0.0
8.624999999999995 0.9069374999999993 0.0
8.874999999999995 0.9349374999999991 0.0
9.125 0.9588125000000001 0.0
9.375 0.9778124999999998 0.0
9.625 0.9911874999999999 0.0
9.875 0.9981875000000007 0.0
0.0 1.799999999999167 0.0
0.0 1.6 0.0
0.0 1.400000000001387 0.0
0.0 1.200000000002774 0.0
0.0 1.000000000004117 0.0
0.0 0.8000000000033287 0.0
0.0 0.6000000000024965 0.0
0.0 0.4000000000016644 0.0
0.0 0.200000000000832 0.0
0.199999999999856 0.0 0.0
0.3999999999996677 0.0 0.0
0.5999999999994683 0.0 0.0
0.7999999999993286 0.0 0.0
0.9999999999991888 0.0 0.0
1.199999999999033 0.0 0.0
1.399999999998576 0.0 0.0
1.599999999997992 0.0 0.0
1.799999999997408 0.0 0.0
1.999999999996825 0.0 0.0
2.199999999996241 0.0 0.0
2.399999999995657 0.0 0.0
2.599999999995073 0.0 0.0
2.79999999999449 0.0 0.0
2.999999999993906 0.0 0.0
3.199999999993322 0.0 0.0
3.399999999992738 0.0 0.0
3.599999999992154 0.0 0.0
3.799999999991571 0.0 0.0
3.999999999991022 0.0 0.0
4.199999999991187 0.0 0.0
4.399999999991491 0.0 0.0
4.599999999991795 0.0 0.0
4.799999999992099 0.0 0.0
4.999999999992403 0.0 0.0
5.199999999992706 0.0 0.0
5.39999999999301 0.0 0.0
5.599999999993313 0.0 0.0
5.799999999993618 0.0 0.0
5.999999999993922 0.0 0.0
6.199999999994227 0.0 0.0
6.39999999999453 0.0 0.0
6.599999999994833 0.0 0.0
6.799999999995138 0.0 0.0
6.999999999995442 0.0 0.0
7.199999999995747 0.0 0.0
7.39999999999605 0.0 0.0
7.599999999996353 0.0 0.0
7.799999999996658 0.0 0.0
7.999999999996962 0.0 0.0
8.199999999997265 0.0 0.0
8.399999999997569 0.0 0.0
8.599999999997873 0.0 0.0
8.799999999998176 0.0 0.0
8.99999999999848 0.0 0.0
9.199999999998786 0.0 0.0
9.399999999999089 0.0 0.0
9.599999999999392 0.0 0.0
9.799999999999697 0.0 0.0
10.0 0.1999999999995579 0.0
10.0 0.3999999999989749 0.0
10.0 0.5999999999989468 0.0
10.0 0.7999999999994734 0.0
0.913963423524136 0.9126937851647636 0.0
1.629657910441747 0.8286436141773268 0.0
2.300136613917738 0.6369890708869279 0.0
0.5989085226155619 1.38125543468559 0.0
1.274155622640533 1.242773398230304 0.0
2.860215383945273 0.5217401976756945 0.0
9.469653920408135 0.4910067017840992 0.0
8.984679546317787 0.4696119782494839 0.0
8.499397693277212 0.4463630640980716 0.0
3.270918412356206 0.4522692359356972 0.0
1.223039611612243 0.5146439900227544 0.0
2.024812732135938 1.00818256045515 0.0
0.5365376864627701 0.5434316309416508 0.0
8.114834335444021 0.4602948767329583 0.0
7.742261962994204 0.4117304941858466 0.0
0.9443382341364558 1.456061359265878 0.0
1.665275621558886 1.201744468407863 0.0
1.89566112584099 0.4397284596316843 0.0
3.691409759982064 0.3560936332572802 0.0
7.368457390036411 0.3792926046732459 0.0
0.5071184951703254 0.9340893429149442 0.0
0.3822273842356539 1.647625881691675 0.0
5.916285335387544 0.2564903116750689 0.0
5.628860531758535 0.2582323053999509 0.0
5.380471017960128 0.2502349014663197 0.0
5.139244585769944 0.2549145445969738 0.0
2.686085237972266 0.8031095648160084 0.0
4.507599040026292 0.263176944655695 0.0
6.983755234374982 0.3380000000001097 0.0
9.720925955181613 0.6635813325201156 0.0
1.288006195687152 0.8759679848503046 0.0
9.20556379558699 0.6923669083350594 0.0
2.319913492084225 0.9512500928262699 0.0
8.73203612228155 0.6151508464420534 0.0
4.868679481352366 0.2526598053940744 0.0
4.10358044398202 0.3012437332986487 0.0
6.602422946953217 0.3126221952225479 0.0
2.534693527909069 0.3583319619586092 0.0
6.193332317503376 0.2894654215336858 0.0
0.8804088217382579 0.3735513844182569 0.0
0.7663303172393539 1.679065267574722 0.0
3.081211528283084 0.6968015573146217 0.0
1.241762689885858 1.521465072418641 0.0
1.573472750763779 0.3374689934575129 0.0
1.475107933015155 1.403918544935278 0.0
0.8212739503602162 1.195790902469637 0.0
4.681049549092561 0.3558177014380842 0.0
9.439519900118443 0.7366884444350511 0.0
2.201393787062887 0.3261463175998884 0.0
2.015369189818184 0.7109460688851087 0.0
8.32727069655695 0.6360373328685593 0.0
8.961488632119996 0.7119124617705204 0.0
9.22773266034565 0.3109430611770705 0.0
0.3000513553073295 1.178778127105867 0.0
1.91985473842554 1.233084801189704 0.0
8.749827252515535 0.3049638092131281 0.0
3.50551132590258 0.5576614504134195 0.0
3.040500962406976 0.290446660105673 0.0
9.72097519930939 0.3037986529514364 0.0
0.3073166349239687 0.3249300260882615 0.0
0.2948185331392187 0.7229775107826154 0.0
1.46029425821417 1.06552904833304 0.0
0.8085718129253527 0.673531272847494 0.0
7.913326191751847 0.5738936378911789 0.0
8.295349499871781 0.2556682497524391 0.0
4.31359646688283 0.3665214152100782 0.0
7.542842082022704 0.5249918217576657 0.0
1.058357552227335 1.116692590939024 0.0
2.214297272750292 1.159898327391242 0.0
2.901187336648686 0.8282146771898153 0.0
3.933498145061447 0.4325241689837319 0.0
7.956006969037984 0.2667411694088205 0.0
7.172393179434975 0.4835114022190097 0.0
1.440243631802057 0.6689433452646625 0.0
3.458541882144431 0.2581755850286561 0.0
5.791617360065465 0.3978542524532168 0.0
5.981529865241493 0.3900667299390458 0.0
1.083462543944253 0.7203994120564634 0.0
1.78518471978951 1.008552691762234 0.0
2.77360122246243 0.2689852172070111 0.0
2.565134389978369 0.9928826788184764 0.0
2.543046005790158 0.6034091352176242 0.0
3.293038780485421 0.6769811703257343 0.0
6.790787388653942 0.4353933509634578 0.0
1.140204059461831 0.2538227257007896 0.0
0.6242104065654487 0.2738473600765566 0.0
6.393430278703709 0.3766405270445946 0.0
8.533059390324546 0.6950580701614406 0.0
0.9961263693263854 1.612128843772703 0.0
1.697598586607002 0.5781950992180334 0.0
8.087930458724863 0.6517815437732153 0.0
0.2748906317360928 1.770749713716887 0.0
0.5785110002099415 1.757022387413085 0.0
5.550004842562332 0.3852675728674634 0.0
4.948161884155141 0.3480305424737933 0.0
1.741244734175577 1.381979611033466 0.0
5.312408927381063 0.3621256994047111 0.0
0.2492139438157334 1.453132031680879 0.0
7.597720022451821 0.2370268512906596 0.0
9.471021754366422 0.2472916581956264 0.0
7.714083843672875 0.600212897672991 0.0
4.520815862079482 0.3946753115680038 0.0
2.47356661122767 0.8007389356831706 0.0
7.325494311403363 0.528948935030723 0.0
7.147005275585743 0.2709670165999667 0.0
3.758046446289313 0.5474783841545341 0.0
3.893717059615281 0.1664960777568404 0.0
2.152835534199412 0.8614028741175742 0.0
8.995993312441625 0.1933410497113667 0.0
1.077676137392001 1.368204555688504 0.0
0.2429906229817933 0.9816066505657851 0.0
0.6261765586985547 1.180540007244081 0.0
9.81151801018651 0.816223424030724 0.0
0.6725442903064565 0.8425384371773644 0.0
1.74584086891446 0.2617492458514414 0.0
0.7667820686164357 1.440842670056678 0.0
8.539133693395232 0.1910926418035274 0.0
5.129145653242096 0.3632579123815574 0.0
6.816538849831732 0.2013284992826486 0.0
2.108503954619862 0.5359795950847274 0.0
6.933669557130528 0.4980836483776163 0.0
3.071406705674529 0.4919421055852253 0.0
2.001240035874449 0.2292738462614773 0.0
4.782473531509697 0.4061213127162872 0.0
0.5734126310178208 1.536352720889636 0.0
9.796714529589472 0.4898048068674991 0.0
5.678359041645315 0.373719883316694 0.0
5.427661572827738 0.3646059266294788 0.0
2.075214597532947 1.226969224366912 0.0
3.251521478555126 0.2637671977660283 0.0
2.722180837291864 0.9710783334409533 0.0
9.333262390342384 0.8479609887828539 0.0
1.367251332770493 0.2041553944563636 0.0
1.870721433742522 0.7905989208842599 0.0
1.387906762913351 1.555741687747287 0.0
9.559918612869 0.8444052974080497 0.0
9.286795039366257 0.4698254290795815 0.0
1.507117480770146 1.225129516597721 0.0
[...]
POINT_DATA 600

VECTORS Velocity float
0.0000000000000000 0.0000000000000000 0.0
0.0000000000000000 0.0000000000000000 0.0
0.0000000000000000 0.0000000000000000 0.0
0.0000000000000000 0.0000000000000000 0.0
0.0000000000000000 0.0000000000000000 0.0
0.0000000000000000 0.0000000000000000 0.0
0.0000000000000000 0.0000000000000000 0.0
0.0000000000000000 0.0000000000000000 0.0
0.0000000000000000 0.0000000000000000 0.0
0.0000000000000000 0.0000000000000000 0.0
0.0000000000000000 0.0000000000000000 0.0
0.0000000000000000 0.0000000000000000 0.0
0.0000000000000000 0.0000000000000000 0.0
0.0000000000000000 0.0000000000000000 0.0
0.0000000000000000 0.0000000000000000 0.0
0.0000000000000000 0.0000000000000000 0.0
0.0000000000000000 0.0000000000000000 0.0
0.0000000000000000 0.0000000000000000 0.0
0.0000000000000000 0.0000000000000000 0.0
0.0000000000000000 0.0000000000000000 0.0
0.0000000000000000 0.0000000000000000 0.0
0.0000000000000000 0.0000000000000000 0.0
0.0000000000000000 0.0000000000000000 0.0
0.0000000000000000 0.0000000000000000 0.0
0.0000000000000000 0.0000000000000000 0.0
0.0000000000000000 0.0000000000000000 0.0
0.0000000000000000 0.0000000000000000 0.0
0.0000000000000000 0.0000000000000000 0.0
0.0000000000000000 0.0000000000000000 0.0
0.0000000000000000 0.0000000000000000 0.0
0.0000000000000000 0.0000000000000000 0.0
0.0000000000000000 0.0000000000000000 0.0
0.0000000000000000 0.0000000000000000 0.0
0.0000000000000000 0.0000000000000000 0.0
0.0000000000000000 0.0000000000000000 0.0
0.0000000000000000 0.0000000000000000 0.0
0.0000000000000000 0.0000000000000000 0.0
0.0000000000000000 0.0000000000000000 0.0
0.0000000000000000 0.0000000000000000 0.0
0.0000000000000000 0.0000000000000000 0.0
0.0000000000000000 0.0000000000000000 0.0
0.0000000000000000 0.0000000000000000 0.0
0.8253857747559955 -0.1305099820496773 0.0
0.0000000000000000 0.0000000000000000 0.0
0.0000000000000000 0.0000000000000000 0.0
0.0000000000000000 0.0000000000000000 0.0
0.0000000000000000 0.0000000000000000 0.0
0.0000000000000000 0.0000000000000000 0.0
0.0000000000000000 0.0000000000000000 0.0
0.0000000000000000 0.0000000000000000 0.0
0.0000000000000000 0.0000000000000000 0.0
0.0000000000000000 0.0000000000000000 0.0
0.0000000000000000 0.0000000000000000 0.0
0.0000000000000000 0.0000000000000000 0.0
0.0000000000000000 0.0000000000000000 0.0
0.0000000000000000 0.0000000000000000 0.0
0.0000000000000000 0.0000000000000000 0.0
0.0000000000000000 0.0000000000000000 0.0
0.0000000000000000 0.0000000000000000 0.0
0.0000000000000000 0.0000000000000000 0.0
0.0000000000000000 0.0000000000000000 0.0
0.0000000000000000 0.0000000000000000 0.0
0.0000000000000000 0.0000000000000000 0.0
0.0000000000000000 0.0000000000000000 0.0
0.0000000000000000 0.0000000000000000 0.0
0.0000000000000000 0.0000000000000000 0.0
0.0000000000000000 0.0000000000000000 0.0
0.0000000000000000 0.0000000000000000 0.0
0.0000000000000000 0.0000000000000000 0.0
0.0000000000000000 0.0000000000000000 0.0
0.0000000000000000 0.0000000000000000 0.0
0.0000000000000000 0.0000000000000000 0.0
0.0000000000000000 0.0000000000000000 0.0
0.0000000000000000 0.0000000000000000 0.0
0.0000000000000000 0.0000000000000000 0.0
0.0000000000000000 0.0000000000000000 0.0
0.0000000000000000 0.0000000000000000 0.0
0.0000000000000000 0.0000000000000000 0.0
0.0000000000000000 0.0000000000000000 0.0
0.0000000000000000 0.0000000000000000 0.0
0.0000000000000000 0.0000000000000000 0.0
0.0000000000000000 0.0000000000000000 0.0
0.0000000000000000 0.0000000000000000 0.0
0.0000000000000000 0.0000000000000000 0.0
0.0000000000000000 0.0000000000000000 0.0
0.0000000000000000 0.0000000000000000 0.0
0.0000000000000000 0.0000000000000000 0.0
0.0000000000000000 0.0000000000000000 0.0
0.0000000000000000 0.0000000000000000 0.0
1.0000000000000000 0.0000000000000000 0.0
1.0000000000000000 0.0000000000000000 0.0
1.0000000000000000 0.0000000000000000 0.0
1.0000000000000000 0.0000000000000000 0.0
1.0000000000000000 0.0000000000000000 0.0
1.0000000000000000 0.0000000000000000 0.0
1.0000000000000000 0.0000000000000000 0.0
1.0000000000000000 0.0000000000000000 0.0
1.0000000000000000 0.0000000000000000 0.0
0.0000000000000000 0.0000000000000000 0.0
0.0000000000000000 0.0000000000000000 0.0
0.0000000000000000 0.0000000000000000 0.0
0.0000000000000000 0.0000000000000000 0.0
0.0000000000000000 0.0000000000000000 0.0
0.0000000000000000 0.0000000000000000 0.0
0.0000000000000000 0.0000000000000000 0.0
0.0000000000000000 0.0000000000000000 0.0
0.0000000000000000 0.0000000000000000 0.0
0.0000000000000000 0.0000000000000000 0.0
0.0000000000000000 0.0000000000000000 0.0
0.0000000000000000 0.0000000000000000 0.0
0.0000000000000000 0.0000000000000000 0.0
0.0000000000000000 0.0000000000000000 0.0
0.0000000000000000 0.0000000000000000 0.0
0.0000000000000000 0.0000000000000000 0.0
0.0000000000000000 0.0000000000000000 0.0
0.0000000000000000 0.0000000000000000 0.0
0.0000000000000000 0.0000000000000000 0.0
0.0000000000000000 0.0000000000000000 0.0
0.0000000000000000 0.0000000000000000 0.0
0.0000000000000000 0.0000000000000000 0.0
0.0000000000000000 0.0000000000000000 0.0
0.0000000000000000 0.0000000000000000 0.0
0.0000000000000000 0.0000000000000000 0.0
0.0000000000000000 0.0000000000000000 0.0
0.0000000000000000 0.0000000000000000 0.0
0.0000000000000000 0.0000000000000000 0.0
0.0000000000000000 0.0000000000000000 0.0
0.0000000000000000 0.0000000000000000 0.0
0.0000000000000000 0.0000000000000000 0.0
0.0000000000000000 0.0000000000000000 0.0
0.0000000000000000 0.0000000000000000 0.0
0.0000000000000000 0.0000000000000000 0.0
0.0000000000000000 0.0000000000000000 0.0
0.0000000000000000 0.0000000000000000 0.0
0.0000000000000000 0.0000000000000000 0.0
0.0000000000000000 0.0000000000000000 0.0
0.0000000000000000 0.0000000000000000 0.0
0.0000000000000000 0.0000000000000000 0.0
0.0000000000000000 0.0000000000000000 0.0
0.0000000000000000 0.0000000000000000 0.0
0.0000000000000000 0.0000000000000000 0.0
0.0000000000000000 0.0000000000000000 0.0
0.0000000000000000 0.0000000000000000 0.0
0.0000000000000000 0.0000000000000000 0.0
0.0000000000000000 0.0000000000000000 0.0
0.0000000000000000 0.0000000000000000 0.0
0.0000000000000000 0.0000000000000000 0.0
1.0710407279700180 -0.4566110940193717 0.0
0.9687404469762434 -0.1875357288878555 0.0
0.9830048770995018 -0.0268924063191327 0.0
1.0710034174837024 0.3784497153982242 0.0
1.2704385652851311 0.0030212102244646 0.0
1.3362404686159495 -0.0660919725292844 0.0
1.3883985476980498 -0.1474703974638683 0.0
1.2180804573273856 -0.0788828672224011 0.0
1.3143143942111959 -0.0832993217734416 0.0
1.4871526453136257 -0.1044596956169566 0.0
1.5565985448893993 -0.0253018466974851 0.0
1.5117921441266018 0.0171511630005827 0.0
1.5730016587477196 0.0899858326269837 0.0
1.4992466435246126 -0.1186664917698603 0.0
1.2186123210853101 -0.0017755633844575 0.0
1.3113276278338226 -0.0980208289779613 0.0
1.2239261902721179 0.1869497707638023 0.0
1.5730063746247380 0.0686829613480448 0.0
1.5527079334945271 0.0143638994667695 0.0
1.1975359846806344 -0.0585539017773098 0.0
1.2800529636089404 -0.0430989317849732 0.0
1.1855648185002130 -0.0332464686778076 0.0
1.5280469345140328 -0.0542880608935076 0.0
1.5797635344056660 0.0508247688149918 0.0
1.1612894330764496 0.0797706310485121 0.0
1.1733636009572135 -0.2090528216037960 0.0
1.4978280141553091 0.0167244814139634 0.0
1.4986127078232869 -0.0185487728246595 0.0
1.5278341888311611 0.0350685739716686 0.0
1.5498845777178578 0.0136069794976096 0.0
1.3256667960565327 -0.1271570709018374 0.0
1.4887007506279106 0.0073446574646872 0.0
1.6541103758781095 0.0248725558557697 0.0
1.3461471316474642 0.1263246461419844 0.0
1.3215023881177934 -0.0363868751253979 0.0
1.3749802678817178 -0.0454393370669481 0.0
1.3121240797176745 -0.1462634832204471 0.0
1.4949831379721314 0.0929500993290099 0.0
1.5140220673819402 0.0013304700108516 0.0
1.6255753616053683 -0.1041898077718384 0.0
1.6830148863756318 -0.0395349250287625 0.0
1.2185741400129007 -0.0759543641283599 0.0
1.5897963278744653 -0.0188427113280528 0.0
1.0504215768014948 0.0467463270581653 0.0
0.9466465781103176 0.0165556153203970 0.0
1.3734616893689597 -0.0624589482008774 0.0
0.9699006080539071 -0.0017733372816498 0.0
0.9475836750465038 -0.0487877785220542 0.0
1.0699449400579557 0.0186609470392402 0.0
1.2562660071306464 -0.0378545458969965 0.0
1.7970824410981585 -0.1347906714707907 0.0
1.2838593198468000 0.0003866372350906 0.0
1.0282207828292085 -0.0656188806363426 0.0
1.3583142826763661 -0.0818999311506472 0.0
1.3657676593819592 0.0376625063221852 0.0
1.3232904774124372 0.0040709648476177 0.0
1.2313066588488513 -0.0216442004857887 0.0
1.0691388994686366 -0.0381653127860548 0.0
1.1252708572091286 -0.0038784128608001 0.0
1.2553893020027178 0.0197463430008122 0.0
1.4453036910194357 -0.0638778937336004 0.0
1.2321718157666262 -0.0248607943804224 0.0
1.2116667824408567 -0.1983864498457200 0.0
1.1388700327695227 0.3152818576574800 0.0
1.0892399966354602 0.1757094282722901 0.0
1.3489573700654882 -0.0601964991252044 0.0
1.2594841515941644 0.0662985145001871 0.0
1.4017731109758034 0.0567259994642879 0.0
1.2324284991465448 0.0195257475305927 0.0
1.7379491941767544 0.0668732429464168 0.0
1.4773379904470150 -0.0049629239076552 0.0
1.2982754562012331 -0.0450673657009016 0.0
0.9753332548722076 -0.0168995610371085 0.0
1.1218702870933306 -0.0246667226839611 0.0
1.6028866606615491 -0.1318899485562633 0.0
1.3084450235743230 0.0499853728564857 0.0
1.4447073163768194 0.0697457956236356 0.0
1.3148439105706131 -0.0372846161878761 0.0
1.2455476780853785 -0.0421347851122895 0.0
1.5315849091531544 -0.0413949353619559 0.0
1.6054432447179718 0.0412136743299140 0.0
1.2958697330812727 0.0082985489939202 0.0
1.3431752499187577 -0.0784266669512919 0.0
1.0988610288676133 -0.0808329641672868 0.0
1.0177412447001046 -0.0313631786575397 0.0
1.4439236673486515 -0.1500188008655365 0.0
1.2393440492559324 -0.1027651084022564 0.0
1.5829342491410698 0.0131320040660941 0.0
0.6809174668108741 0.0260457860587185 0.0
0.9248269201735747 0.0847585709416328 0.0
1.6624792285227488 0.0139633055418288 0.0
1.2470681610343923 -0.0052383802081255 0.0
0.9558184013758623 0.0025048107490031 0.0
1.2805149597275174 -0.0761317247304594 0.0
1.2002965511757335 0.0060238992013863 0.0
1.1282049784158004 -0.2648767421331253 0.0
0.8883452629938777 0.0369064061552929 0.0
1.5886846242700827 0.0108032890321497 0.0
1.6604936566821777 -0.0102453423464261 0.0
0.9168274188787878 0.0710367616851112 0.0
1.6029911924259432 0.0557527377284357 0.0
1.0911403013723282 -0.1673660647646369 0.0
1.2261464427773388 0.0325139097920587 0.0
1.1192926377453483 -0.0374162842814475 0.0
1.2335594174704434 0.0174685033207763 0.0
1.6663728497410593 -0.0232176037089526 0.0
1.3934458743182967 -0.1985069984827335 0.0
1.4428131351069693 0.0430502253025191 0.0
1.4499227565835027 0.0869661268917788 0.0
1.3441568297649586 -0.0509549902866708 0.0
0.7476475466682238 -0.0898735721914608 0.0
1.3593529545619152 -0.1361683262069856 0.0
0.6721542786530698 -0.0072894472795637 0.0
1.2564507238919271 -0.0727596949866563 0.0
1.0426643107408970 0.0270666189934866 0.0
1.2059346456277884 -0.0133559894068721 0.0
1.1714630576255232 0.2270701729111179 0.0
1.2232438353290422 0.0771068476279647 0.0
0.7973088653037745 0.0111589672918992 0.0
1.2325037296205363 -0.0701312904758380 0.0
0.7152919974901832 0.0027539020228439 0.0
1.6503843075259663 0.0023094853186322 0.0
1.0165584241015189 0.0770914747144178 0.0
1.3150558919802213 -0.1022471470013542 0.0
1.1366186742517093 0.0012678100769170 0.0
1.4649592299062273 -0.1375076139471425 0.0
0.6164450295004795 -0.0443843443842718 0.0
1.1770003973175778 -0.0778608529326585 0.0
1.2172671472388377 -0.0887181205272811 0.0
1.2762103751286884 -0.0968556872322936 0.0
1.6308419088536414 -0.0138017323182468 0.0
1.6002615011609096 0.0488158769250448 0.0
0.9613558031842270 0.0506477541081222 0.0
1.2434398226584562 -0.0422529744838122 0.0
0.7749282408486572 0.0903767365052044 0.0
0.6070707552665373 -0.0028409122187987 0.0
0.5050128104236077 0.0263088275998809 0.0
1.3360637135428759 -0.0754742438235746 0.0
0.6316139562419295 0.1523833275254615 0.0
0.7128912902724736 -0.0067695564976162 0.0
1.5325677415916346 0.0203773704291176 0.0
1.2991866145419830 -0.0582970166711199 0.0
1.2146368855395000 -0.0370312247315026 0.0
1.5581570823119908 0.0623154859092274 0.0
1.3264291799900723 -0.0599540018669208 0.0
1.5696157018181078 0.0299877357285538 0.0
1.1832525364270292 0.0582480151942681 0.0
1.1234138192105128 -0.2287531555827127 0.0
1.1864736814276087 0.1457107499426885 0.0
1.1086235133457696 0.2201501722843958 0.0
1.0735231161603400 -0.0467838101114032 0.0
1.1843935842593247 0.0262643974722135 0.0
0.9322992036636867 0.0407171961906183 0.0
0.6365703425838276 0.1318820416083882 0.0
0.9917638203519361 -0.0117598683645813 0.0
1.3015141035734739 -0.0312034474201785 0.0
0.7687142210656165 0.0680829783548813 0.0
1.2251905165193686 0.0381058193490537 0.0
1.3379432031065457 -0.0515801043788996 0.0
0.9341591677033717 -0.0122910765986679 0.0
1.2629006405868968 0.0326881377673582 0.0
1.5116910471558529 0.0477895496634180 0.0
1.1970532541947032 -0.1391564973017914 0.0
1.2950895963855535 -0.0925031904818059 0.0
0.5881920420206626 0.1309070831712658 0.0
0.5884018843827208 0.1036939441900921 0.0
0.8418405505817477 -0.0125786990640405 0.0
1.4471520848680661 -0.0849995548058754 0.0
1.3439323122131306 -0.0645828129889788 0.0
0.6149479567514690 0.1498348919416873 0.0
0.7272055567779772 -0.0475377185951191 0.0
1.1195444925528013 0.0195809381180524 0.0
1.4206969113983055 -0.0912691968912479 0.0
0.9849032136212127 -0.0107739042129783 0.0
1.2329104570311356 0.0111176982202503 0.0
1.3182600602075714 -0.0633929834053455 0.0
0.9613075822866305 0.0083019049668033 0.0
0.8732516199641757 0.0703417319153993 0.0
1.3257470020864717 -0.0001055758838561 0.0
0.7764098725903833 -0.0266997683142254 0.0
1.5591647317004080 -0.0252872296874145 0.0
0.7705881308788202 0.0214527567727393 0.0
0.7766352677569510 -0.0285322253273811 0.0
1.2712378829512436 -0.0678004197212027 0.0
1.3139940769272778 -0.0131217351460246 0.0
0.9944962131746962 0.0089989576577938 0.0
0.6567459344307073 0.1725351120941871 0.0
0.9090615561739357 -0.0040307552028251 0.0
1.1941311107475565 -0.0395047996404181 0.0
0.8319673525092572 0.0826136731254709 0.0
1.1929971250640827 0.1159102116698372 0.0
1.1465971880354882 -0.0422271606958357 0.0
0.6847161586655379 0.0183674725337908 0.0
1.4988087002965684 -0.0186365195857023 0.0
0.9093337613344233 -0.0112544944585927 0.0
1.5206962592658817 -0.0223696435165114 0.0
0.4898234827813995 -0.0387751199076710 0.0
1.3878311001604602 -0.1537368061711246 0.0
1.5679253921376974 -0.0134786755241766 0.0
0.6163056897287617 0.1109716149476239 0.0
0.7829783489477767 -0.0247653844114017 0.0
1.5721113759388903 0.0692879784925707 0.0
0.9423368134288983 0.0818600580049917 0.0
1.5500586622887527 0.0534763168148399 0.0
1.0680867106029426 -0.0357703921966694 0.0
0.8056884252261188 -0.0573883300545349 0.0
0.7070908641335807 -0.0240411188959493 0.0
1.0151673487249799 -0.0255643460595491 0.0
0.9986533471252081 0.0295892275651811 0.0
1.4584470326075030 0.0127887136843882 0.0
0.5689392459681900 0.0363416487989945 0.0
0.8782859746019318 -0.0602298390337989 0.0
0.8502183295350492 0.0520624910322999 0.0
1.4219117455824495 0.0747593248385199 0.0
0.8051286064347991 -0.1970819224510003 0.0
0.8283601778052454 -0.0261877834572583 0.0
0.5356316444856333 -0.0474395586738744 0.0
1.1144206019466287 0.0009901756676653 0.0
0.7391119068724624 0.1803216339389516 0.0
0.8993423004733424 0.0431510436798553 0.0
1.2617645096041530 -0.1290694224659400 0.0
0.7705571571325661 -0.0171864969134923 0.0
0.9029475601217259 -0.0021080726725642 0.0
1.0685851977801248 -0.0281555790769999 0.0
0.7930420297721380 -0.0282818926508328 0.0
0.7671187918615321 -0.0457286248322921 0.0
1.4727551709186399 0.0287287055556599 0.0
0.8038852481986215 -0.0316672965829307 0.0
1.0363863223783638 -0.0605778997191777 0.0
0.8397045035014686 0.0547197590647310 0.0
1.3014418084026835 -0.0552096216710805 0.0
0.6471689549112646 -0.0154366587562211 0.0
0.4535270137180223 0.0081382028411213 0.0
1.1584090162164522 -0.0596551644832167 0.0
0.8384895577557315 0.0991164983796806 0.0
0.7941751527778258 -0.0169908365469273 0.0
0.9573527437806688 0.0565663379666062 0.0
1.2633251547279583 -0.0218610866802630 0.0
0.6666879943249626 -0.0191345400381778 0.0
1.2083324137420302 0.1820829545096471 0.0
1.4830746205109087 0.0026775132028946 0.0
0.7113000962757939 -0.0121576463767156 0.0
1.1392931339921166 0.0050573859870483 0.0
1.2400886269932465 -0.0484510886286532 0.0
1.1386656535452202 -0.0447605505531302 0.0
1.3449050584627831 -0.1054054654182415 0.0
0.5129561267765577 0.1954454183971895 0.0
1.7258313832347905 0.0209931939911721 0.0
1.2761587824153635 0.0233191080383728 0.0
0.5747587393368226 0.0511235026496899 0.0
1.3824505221150734 -0.1231144289768984 0.0
1.4811248906236483 -0.0939403191429917 0.0
0.6534620436302291 -0.0055903431059498 0.0
1.0227014369728371 -0.0048939787248564 0.0
0.6719324634790991 -0.0391047546956453 0.0
0.9514415222961862 -0.0774170242648637 0.0
0.7850050397269304 -0.0537947887470360 0.0
0.4414513680319123 0.2020513288949697 0.0
1.1485894067158777 0.2064386339841858 0.0
1.5950251566393454 0.0116715503279350 0.0
0.6021467163727088 0.2091193115548702 0.0
1.5706050384352894 -0.0580073875837755 0.0
1.7446344017858157 0.0946714263853923 0.0
0.5795141876547832 0.1950494187769166 0.0
1.4771936493823723 0.0437324440283575 0.0
1.4032438962779499 -0.1421397709235530 0.0
0.9288536324958554 0.2464281850185989 0.0
1.2946779017798007 -0.0183823803531580 0.0
1.3218025692584277 0.0181075185233132 0.0
0.7803283481128105 0.0899349808912083 0.0
1.3382709832188131 -0.1059371220225752 0.0
0.7099827957823232 -0.0563110190991298 0.0
0.6299137327281931 0.1807460812834126 0.0
0.4471000460682971 0.0251565130029185 0.0
1.2338525687517579 -0.0317806989692723 0.0
0.8881705887372394 -0.2726010532785939 0.0
1.4106050063967639 0.0971918529498044 0.0
1.2945090880752006 -0.0967483064476235 0.0
0.5685169019455177 -0.0110454575831815 0.0
0.5910265623729004 0.0474967903692582 0.0
0.7021951907950222 0.0177611926251212 0.0
1.1233744800894030 0.0167878903337306 0.0
1.1993277640145574 0.2623472647678918 0.0
0.5765704136413569 -0.0357017878989282 0.0
1.1650103239131844 -0.0476888107474098 0.0
0.5959238942540300 0.0416889024998188 0.0
1.5705635530481170 0.0391001173034236 0.0
0.4839674876567086 0.2367479730453369 0.0
0.7526462980076525 -0.1199013844879072 0.0
1.5355301151434204 -0.0447719307908380 0.0
1.2582064803745459 0.0340013322304459 0.0
1.4764705475623106 -0.1289501626738746 0.0
0.6870038496585207 0.0058442242167302 0.0
0.8695675689954269 -0.0340049456691441 0.0
1.4487707711129383 -0.1020556162179416 0.0
1.3260616001227965 -0.0639836693924822 0.0
1.0203163410725191 0.0612977801204621 0.0
1.4431694711891301 0.0361075073120479 0.0
1.3003195687010001 -0.0715924650207679 0.0
1.2443192622690604 0.1206918206612197 0.0
0.9208404055581069 -0.0071996882214772 0.0
0.7419416051874786 -0.0214935786749751 0.0
0.6732255950933010 -0.0460945496608331 0.0
1.3099246807300762 -0.0714958205477987 0.0
1.2985672706186313 -0.0437192502136330 0.0
1.1136200884643144 0.1091072422157501 0.0
0.3744247934423902 0.0293394657253497 0.0
1.4322432982224449 -0.0974071768240150 0.0
0.3321026348255199 0.1116166768157668 0.0
0.6912782090876817 0.1203935225671108 0.0
1.1177607568413406 0.0122018784880821 0.0
0.5408728369515464 -0.1159441380579018 0.0
1.1470103579527111 -0.3089435180342391 0.0
1.3386537782070220 -0.0671047321208972 0.0
1.6086498489444128 -0.0175213606160691 0.0
0.7302603870392528 0.1116723041448225 0.0
1.5236818131753858 -0.0604093064888298 0.0
0.9251895778291780 -0.0328968856155237 0.0
1.3506707741626152 -0.0567450544371735 0.0
0.9284311744305960 -0.0260088156506973 0.0
0.5267861763028027 0.1930961141202171 0.0
0.9097624483431279 -0.0540394371974284 0.0
1.0289452740667180 -0.0637783161762454 0.0