# vtk DataFile Version 3.0
LucasCarvalhoTCC Results
ASCII

DATASET POLYDATA
FIELD FieldData 1
TIME 1 1 double
1.3

POINTS 600 float
0.0 2.0 0.0
0.25 1.989125 0.0
0.5 1.958 0.0
0.75 1.908875 0.0
1.0 1.844 0.0
1.25 1.765625 0.0
1.5 1.676 0.0
1.75 1.577375 0.0
2.0 1.472 0.0
2.25 1.362125 0.0
2.5 1.25 0.0
2.75 1.137875 0.0
3.0 1.028 0.0
3.25 0.922625 0.0
3.5 0.8240000000000001 0.0
3.75 0.734375 0.0
4.0 0.6560000000000001 0.0
4.25 0.5911249999999999 0.0
4.5 0.542 0.0
4.75 0.510875 0.0
5.0 0.5 0.0
5.25 0.5036250000000004 0.0
5.5 0.5140000000000002 0.0
5.75 0.5303750000000003 0.0
6.0 0.5519999999999996 0.0
6.25 0.578125 0.0
6.5 0.6080000000000005 0.0
6.75 0.6408749999999999 0.0
7.0 0.6760000000000002 0.0
7.25 0.7126249999999992 0.0
7.5 0.75 0.0
7.75 0.7873750000000004 0.0
8.0 0.8239999999999994 0.0
8.25 0.8591250000000001 0.0
8.5 0.8919999999999999 0.0
8.75 0.921875 0.0
9.0 0.9479999999999991 0.0
9.25 0.9696250000000011 0.0
9.5 0.9859999999999984 0.0
9.75 0.9963750000000013 0.0
10.0 1.0 0.0
0.0 0.0 0.0
10.0 0.0 0.0
0.124999999999674 1.994562500000014 0.0
0.3749999999999947 1.973562500000001 0.0
0.6249999999999918 1.933437500000002 0.0
0.874999999999979 1.876437500000006 0.0
1.124999999999963 1.804812500000012 0.0
1.374999999999944 1.72081250000002 0.0
1.624999999999985 1.626687500000006 0.0
1.874999999999953 1.52468750000002 0.0
2.124999999999936 1.417062500000028 0.0
2.374999999999952 1.306062500000022 0.0
2.624999999999919 1.193937500000036 0.0
2.87499999999992 1.082937500000035 0.0
3.124999999999946 0.9753125000000229 0.0
3.374999999999948 0.8733125000000204 0.0
3.624999999999972 0.77918750000001 0.0
3.874999999999963 0.6951875000000118 0.0
4.124999999999968 0.6235625000000082 0.0
4.394409538298571 0.5627485257243309 0.0
4.583333333333322 0.5316250000000015 0.0
4.666666666666668 0.5212499999999999 0.0
4.833333333333334 0.50725 0.0
4.916666666666667 0.503625 0.0
5.083333333333334 0.5012083333333335 0.0
5.166666666666666 0.502416666666667 0.0
5.333333333333334 0.5070833333333337 0.0
5.416666666666667 0.510541666666667 0.0
5.583333333333334 0.5194583333333336 0.0
5.666666666666666 0.5249166666666669 0.0
5.833333333333338 0.5375833333333339 0.0
5.916666666666661 0.544791666666666 0.0
6.105781577147724 0.5630541748119369 0.0
6.375 0.5930625000000003 0.0
6.624999999999988 0.6244374999999988 0.0
6.874999999999994 0.6584374999999991 0.0
7.125 0.6943124999999997 0.0
7.375 0.7313124999999996 0.0
7.624999999999994 0.7686874999999992 0.0
7.875 0.8056874999999999 0.0
8.125 0.8415624999999998 0.0
8.374999999999991 0.8755624999999989 0.0
8.624999999999995 0.9069374999999993 0.0
8.874999999999995 0.9349374999999991 0.0
9.125 0.9588125000000001 0.0
9.375 0.9778124999999998 0.0
9.625 0.9911874999999999 0.0
9.875 0.9981875000000007 0.0
0.0 1.799999999999167 0.0
0.0 1.6 0.0
0.0 1.400000000001387 0.0
0.0 1.200000000002774 0.0
0.0 1.000000000004117 0.0
0.0 0.8000000000033287 0.0
0.0 0.6000000000024965 0.0
0.0 0.4000000000016644 0.0
0.0 0.200000000000832 0.0
0.199999999999856 0.0 0.0
0.3999999999996677 0.0 0.0
0.5999999999994683 0.0 0.0
0.7999999999993286 0.0 0.0
0.9999999999991888 0.0 0.0
1.199999999999033 0.0 0.0
1.399999999998576 0.0 0.0
1.599999999997992 0.0 0.0
1.799999999997408 0.0 0.0
1.999999999996825 0.0 0.0
2.199999999996241 0.0 0.0
2.399999999995657 0.0 0.0
2.599999999995073 0.0 0.0
2.79999999999449 0.0 0.0
2.999999999993906 0.0 0.0
3.199999999993322 0.0 0.0
3.399999999992738 0.0 0.0
3.599999999992154 0.0 0.0
3.799999999991571 0.0 0.0
3.999999999991022 0.0 0.0
4.199999999991187 0.0 0.0
4.399999999991491 0.0 0.0
4.599999999991795 0.0 0.0
4.799999999992099 0.0 0.0
4.999999999992403 0.0 0.0
5.199999999992706 0.0 0.0
5.39999999999301 0.0 0.0
5.599999999993313 0.0 0.0
5.799999999993618 0.0 0.0
5.999999999993922 0.0 0.0
6.199999999994227 0.0 0.0
6.39999999999453 0.0 0.0
6.599999999994833 0.0 0.0
6.799999999995138 0.0 0.0
6.999999999995442 0.0 0.0
7.199999999995747 0.0 0.0
7.39999999999605 0.0 0.0
7.599999999996353 0.0 0.0
7.799999999996658 0.0 0.0
7.999999999996962 0.0 0.0
8.199999999997265 0.0 0.0
8.399999999997569 0.0 0.0
8.599999999997873 0.0 0.0
8.799999999998176 0.0 0.0
8.99999999999848 0.0 0.0
9.199999999998786 0.0 0.0
9.399999999999089 0.0 0.0
9.599999999999392 0.0 0.0
9.799999999999697 0.0 0.0
10.0 0.1999999999995579 0.0
10.0 0.3999999999989749 0.0
10.0 0.5999999999989468 0.0
10.0 0.7999999999994734 0.0
0.913963423524136 0.9126937851647636 0.0
1.629657910441747 0.8286436141773268 0.0
2.300136613917738 0.6369890708869279 0.0
0.5989085226155619 1.38125543468559 0.0
1.274155622640533 1.242773398230304 0.0
2.860215383945273 0.5217401976756945 0.0
9.469653920408135 0.4910067017840992 0.0
8.984679546317787 0.4696119782494839 0.0
8.499397693277212 0.4463630640980716 0.0
3.270918412356206 0.4522692359356972 0.0
1.223039611612243 0.5146439900227544 0.0
2.024812732135938 1.00818256045515 0.0
0.5365376864627701 0.5434316309416508 0.0
8.114834335444021 0.4602948767329583 0.0
7.742261962994204 0.4117304941858466 0.0
0.9443382341364558 1.456061359265878 0.0
1.665275621558886 1.201744468407863 0.0
1.89566112584099 0.4397284596316843 0.0
3.691409759982064 0.3560936332572802 0.0
7.368457390036411 0.3792926046732459 0.0
0.5071184951703254 0.9340893429149442 0.0
0.3822273842356539 1.647625881691675 0.0
5.916285335387544 0.2564903116750689 0.0
5.628860531758535 0.2582323053999509 0.0
5.380471017960128 0.2502349014663197 0.0
5.139244585769944 0.2549145445969738 0.0
2.686085237972266 0.8031095648160084 0.0
4.507599040026292 0.263176944655695 0.0
6.983755234374982 0.3380000000001097 0.0
9.720925955181613 0.6635813325201156 0.0
1.288006195687152 0.8759679848503046 0.0
9.20556379558699 0.6923669083350594 0.0
2.319913492084225 0.9512500928262699 0.0
8.73203612228155 0.6151508464420534 0.0
4.868679481352366 0.2526598053940744 0.0
4.10358044398202 0.3012437332986487 0.0
6.602422946953217 0.3126221952225479 0.0
2.534693527909069 0.3583319619586092 0.0
6.193332317503376 0.2894654215336858 0.0
0.8804088217382579 0.3735513844182569 0.0
0.7663303172393539 1.679065267574722 0.0
3.081211528283084 0.6968015573146217 0.0
1.241762689885858 1.521465072418641 0.0
1.573472750763779 0.3374689934575129 0.0
1.475107933015155 1.403918544935278 0.0
0.8212739503602162 1.195790902469637 0.0
4.681049549092561 0.3558177014380842 0.0
9.439519900118443 0.7366884444350511 0.0
2.201393787062887 0.3261463175998884 0.0
2.015369189818184 0.7109460688851087 0.0
8.32727069655695 0.6360373328685593 0.0
8.961488632119996 0.7119124617705204 0.0
9.22773266034565 0.3109430611770705 0.0
0.3000513553073295 1.178778127105867 0.0
1.91985473842554 1.233084801189704 0.0
8.749827252515535 0.3049638092131281 0.0
3.50551132590258 0.5576614504134195 0.0
3.040500962406976 0.290446660105673 0.0
9.72097519930939 0.3037986529514364 0.0
0.3073166349239687 0.3249300260882615 0.0
0.2948185331392187 0.7229775107826154 0.0
1.46029425821417 1.06552904833304 0.0
0.8085718129253527 0.673531272847494 0.0
7.913326191751847 0.5738936378911789 0.0
8.295349499871781 0.2556682497524391 0.0
4.31359646688283 0.3665214152100782 0.0
7.542842082022704 0.5249918217576657 0.0
1.058357552227335 1.116692590939024 0.0
2.214297272750292 1.159898327391242 0.0
2.901187336648686 0.8282146771898153 0.0
3.933498145061447 0.4325241689837319 0.0
7.956006969037984 0.2667411694088205 0.0
7.172393179434975 0.4835114022190097 0.0
1.440243631802057 0.6689433452646625 0.0
3.458541882144431 0.2581755850286561 0.0
5.791617360065465 0.3978542524532168 0.0
5.981529865241493 0.3900667299390458 0.0
1.083462543944253 0.7203994120564634 0.0
1.78518471978951 1.008552691762234 0.0
2.77360122246243 0.2689852172070111 0.0
2.565134389978369 0.9928826788184764 0.0
2.543046005790158 0.6034091352176242 0.0
3.293038780485421 0.6769811703257343 0.0
6.790787388653942 0.4353933509634578 0.0
1.140204059461831 0.2538227257007896 0.0
0.6242104065654487 0.2738473600765566 0.0
6.393430278703709 0.3766405270445946 0.0
8.533059390324546 0.6950580701614406 0.0
0.9961263693263854 1.612128843772703 0.0
1.697598586607002 0.5781950992180334 0.0
8.087930458724863 0.6517815437732153 0.0
0.2748906317360928 1.770749713716887 0.0
0.5785110002099415 1.757022387413085 0.0
5.550004842562332 0.3852675728674634 0.0
4.948161884155141 0.3480305424737933 0.0
1.741244734175577 1.381979611033466 0.0
5.312408927381063 0.3621256994047111 0.0
0.2492139438157334 1.453132031680879 0.0
7.597720022451821 0.2370268512906596 0.0
9.471021754366422 0.2472916581956264 0.0
7.714083843672875 0.600212897672991 0.0
4.520815862079482 0.3946753115680038 0.0
2.47356661122767 0.8007389356831706 0.0
7.325494311403363 0.528948935030723 0.0
7.147005275585743 0.2709670165999667 0.0
3.758046446289313 0.5474783841545341 0.0
3.893717059615281 0.1664960777568404 0.0
2.152835534199412 0.8614028741175742 0.0
8.995993312441625 0.1933410497113667 0.0
1.077676137392001 1.368204555688504 0.0
0.2429906229817933 0.9816066505657851 0.0
0.6261765586985547 1.180540007244081 0.0
9.81151801018651 0.816223424030724 0.0
0.6725442903064565 0.8425384371773644 0.0
1.74584086891446 0.2617492458514414 0.0
0.7667820686164357 1.440842670056678 0.0
8.539133693395232 0.1910926418035274 0.0
5.129145653242096 0.3632579123815574 0.0
6.816538849831732 0.2013284992826486 0.0
2.108503954619862 0.5359795950847274 0.0
6.933669557130528 0.4980836483776163 0.0
3.071406705674529 0.4919421055852253 0.0
2.001240035874449 0.2292738462614773 0.0
4.782473531509697 0.4061213127162872 0.0
0.5734126310178208 1.536352720889636 0.0
9.796714529589472 0.4898048068674991 0.0
5.678359041645315 0.373719883316694 0.0
5.427661572827738 0.3646059266294788 0.0
2.075214597532947 1.226969224366912 0.0
3.251521478555126 0.2637671977660283 0.0
2.722180837291864 0.9710783334409533 0.0
9.333262390342384 0.8479609887828539 0.0
1.367251332770493 0.2041553944563636 0.0
1.870721433742522 0.7905989208842599 0.0
1.387906762913351 1.555741687747287 0.0
9.559918612869 0.8444052974080497 0.0
9.286795039366257 0.4698254290795815 0.0
1.507117480770146 1.225129516597721 0.0
[...]
POINT_DATA 600

VECTORS Velocity float
0.0000000000000000 0.0000000000000000 0.0
0.0000000000000000 0.0000000000000000 0.0
0.0000000000000000 0.0000000000000000 0.0
0.0000000000000000 0.0000000000000000 0.0
0.0000000000000000 0.0000000000000000 0.0
0.0000000000000000 0.0000000000000000 0.0
0.0000000000000000 0.0000000000000000 0.0
0.0000000000000000 0.0000000000000000 0.0
0.0000000000000000 0.0000000000000000 0.0
0.0000000000000000 0.0000000000000000 0.0
0.0000000000000000 0.0000000000000000 0.0
0.0000000000000000 0.0000000000000000 0.0
0.0000000000000000 0.0000000000000000 0.0
0.0000000000000000 0.0000000000000000 0.0
0.0000000000000000 0.0000000000000000 0.0
0.0000000000000000 0.0000000000000000 0.0
0.0000000000000000 0.0000000000000000 0.0
0.0000000000000000 0.0000000000000000 0.0
0.0000000000000000 0.0000000000000000 0.0
0.0000000000000000 0.0000000000000000 0.0
0.0000000000000000 0.0000000000000000 0.0
0.0000000000000000 0.0000000000000000 0.0
0.0000000000000000 0.0000000000000000 0.0
0.0000000000000000 0.0000000000000000 0.0
0.0000000000000000 0.0000000000000000 0.0
0.0000000000000000 0.0000000000000000 0.0
0.0000000000000000 0.0000000000000000 0.0
0.0000000000000000 0.0000000000000000 0.0
0.0000000000000000 0.0000000000000000 0.0
0.0000000000000000 0.0000000000000000 0.0
0.0000000000000000 0.0000000000000000 0.0
0.0000000000000000 0.0000000000000000 0.0
0.0000000000000000 0.0000000000000000 0.0
0.0000000000000000 0.0000000000000000 0.0
0.0000000000000000 0.0000000000000000 0.0
0.0000000000000000 0.0000000000000000 0.0
0.0000000000000000 0.0000000000000000 0.0
0.0000000000000000 0.0000000000000000 0.0
0.0000000000000000 0.0000000000000000 0.0
0.0000000000000000 0.0000000000000000 0.0
0.0000000000000000 0.0000000000000000 0.0
0.0000000000000000 0.0000000000000000 0.0
0.8259505980908244 -0.1299634735665477 0.0
0.0000000000000000 0.0000000000000000 0.0
0.0000000000000000 0.0000000000000000 0.0
0.0000000000000000 0.0000000000000000 0.0
0.0000000000000000 0.0000000000000000 0.0
0.0000000000000000 0.0000000000000000 0.0
0.0000000000000000 0.0000000000000000 0.0
0.0000000000000000 0.0000000000000000 0.0
0.0000000000000000 0.0000000000000000 0.0
0.0000000000000000 0.0000000000000000 0.0
0.0000000000000000 0.0000000000000000 0.0
0.0000000000000000 0.0000000000000000 0.0
0.0000000000000000 0.0000000000000000 0.0
0.0000000000000000 0.0000000000000000 0.0
0.0000000000000000 0.0000000000000000 0.0
0.0000000000000000 0.0000000000000000 0.0
0.0000000000000000 0.0000000000000000 0.0
0.0000000000000000 0.0000000000000000 0.0
0.0000000000000000 0.0000000000000000 0.0
0.0000000000000000 0.0000000000000000 0.0
0.0000000000000000 0.0000000000000000 0.0
0.0000000000000000 0.0000000000000000 0.0
0.0000000000000000 0.0000000000000000 0.0
0.0000000000000000 0.0000000000000000 0.0
0.0000000000000000 0.0000000000000000 0.0
0.0000000000000000 0.0000000000000000 0.0
0.0000000000000000 0.0000000000000000 0.0
0.0000000000000000 0.0000000000000000 0.0
0.0000000000000000 0.0000000000000000 0.0
0.0000000000000000 0.0000000000000000 0.0
0.0000000000000000 0.0000000000000000 0.0
0.0000000000000000 0.0000000000000000 0.0
0.0000000000000000 0.0000000000000000 0.0
0.0000000000000000 0.0000000000000000 0.0
0.0000000000000000 0.0000000000000000 0.0
0.0000000000000000 0.0000000000000000 0.0
0.0000000000000000 0.0000000000000000 0.0
0.0000000000000000 0.0000000000000000 0.0
0.0000000000000000 0.0000000000000000 0.0
0.0000000000000000 0.0000000000000000 0.0
0.0000000000000000 0.0000000000000000 0.0
0.0000000000000000 0.0000000000000000 0.0
0.0000000000000000 0.0000000000000000 0.0
0.0000000000000000 0.0000000000000000 0.0
0.0000000000000000 0.0000000000000000 0.0
0.0000000000000000 0.0000000000000000 0.0
0.0000000000000000 0.0000000000000000 0.0
1.0000000000000000 0.0000000000000000 0.0
1.0000000000000000 0.0000000000000000 0.0
1.0000000000000000 0.0000000000000000 0.0
1.0000000000000000 0.0000000000000000 0.0
1.0000000000000000 0.0000000000000000 0.0
1.0000000000000000 0.0000000000000000 0.0
1.0000000000000000 0.0000000000000000 0.0
1.0000000000000000 0.0000000000000000 0.0
1.0000000000000000 0.0000000000000000 0.0
0.0000000000000000 0.0000000000000000 0.0
0.0000000000000000 0.0000000000000000 0.0
0.0000000000000000 0.0000000000000000 0.0
0.0000000000000000 0.0000000000000000 0.0
0.0000000000000000 0.0000000000000000 0.0
0.0000000000000000 0.0000000000000000 0.0
0.0000000000000000 0.0000000000000000 0.0
0.0000000000000000 0.0000000000000000 0.0
0.0000000000000000 0.0000000000000000 0.0
0.0000000000000000 0.0000000000000000 0.0
0.0000000000000000 0.0000000000000000 0.0
0.0000000000000000 0.0000000000000000 0.0
0.0000000000000000 0.0000000000000000 0.0
0.0000000000000000 0.0000000000000000 0.0
0.0000000000000000 0.0000000000000000 0.0
0.0000000000000000 0.0000000000000000 0.0
0.0000000000000000 0.0000000000000000 0.0
0.0000000000000000 0.0000000000000000 0.0
0.0000000000000000 0.0000000000000000 0.0
0.0000000000000000 0.0000000000000000 0.0
0.0000000000000000 0.0000000000000000 0.0
0.0000000000000000 0.0000000000000000 0.0
0.0000000000000000 0.0000000000000000 0.0
0.0000000000000000 0.0000000000000000 0.0
0.0000000000000000 0.0000000000000000 0.0
0.0000000000000000 0.0000000000000000 0.0
0.0000000000000000 0.0000000000000000 0.0
0.0000000000000000 0.0000000000000000 0.0
0.0000000000000000 0.0000000000000000 0.0
0.0000000000000000 0.0000000000000000 0.0
0.0000000000000000 0.0000000000000000 0.0
0.0000000000000000 0.0000000000000000 0.0
0.0000000000000000 0.0000000000000000 0.0
0.0000000000000000 0.0000000000000000 0.0
0.0000000000000000 0.0000000000000000 0.0
0.0000000000000000 0.0000000000000000 0.0
0.0000000000000000 0.0000000000000000 0.0
0.0000000000000000 0.0000000000000000 0.0
0.0000000000000000 0.0000000000000000 0.0
0.0000000000000000 0.0000000000000000 0.0
0.0000000000000000 0.0000000000000000 0.0
0.0000000000000000 0.0000000000000000 0.0
0.0000000000000000 0.0000000000000000 0.0
0.0000000000000000 0.0000000000000000 0.0
0.0000000000000000 0.0000000000000000 0.0
0.0000000000000000 0.0000000000000000 0.0
0.0000000000000000 0.0000000000000000 0.0
0.0000000000000000 0.0000000000000000 0.0
0.0000000000000000 0.0000000000000000 0.0
1.0710142231231206 -0.4531880555440722 0.0
0.9700331809050312 -0.1833759156752891 0.0
0.9825548964709988 -0.0263688605860232 0.0
1.0714491352085282 0.3738476106804383 0.0
1.2509230739151258 0.0031478767306307 0.0
1.3105997225175254 -0.0609628572275564 0.0
1.3660776704792128 -0.1373639490868843 0.0
1.2098365062014502 -0.0711525583885035 0.0
1.3065779915651339 -0.0820289023292938 0.0
1.4696649778874487 -0.0998990001397907 0.0
1.5400951437242654 -0.0235743557512993 0.0
1.5002409020740801 0.0160802715124663 0.0
1.5649953838626096 0.0870933509323199 0.0
1.4918337309652681 -0.1168544893530277 0.0
1.2213120516431726 -0.0028131907742546 0.0
1.2994139454965419 -0.0959370772620558 0.0
1.2181114662277790 0.1741612287032074 0.0
1.5648673295435658 0.0671758570366523 0.0
1.5454494723571803 0.0158579090015916 0.0
1.2044119187794982 -0.0601739019116215 0.0
1.2820744416100101 -0.0475852160044141 0.0
1.1914049582056956 -0.0275625871017349 0.0
1.5270420729716510 -0.0530657114219626 0.0
1.5780309555313423 0.0487015282649511 0.0
1.1507589315205204 0.0767845911033209 0.0
1.1825245670290851 -0.1981307096827321 0.0
1.4984376062455571 0.0178415832838852 0.0
1.4996770386291371 -0.0188877189820737 0.0
1.5288129423541144 0.0347677504760197 0.0
1.5509538388334723 0.0139387668829379 0.0
1.3271217445059980 -0.1299315307178765 0.0
1.4897389835779724 0.0056516606865002 0.0
1.6536281014582972 0.0247557335683660 0.0
1.3391691407993760 0.1230315761705876 0.0
1.2957233648038082 -0.0341984454584378 0.0
1.3729390148678084 -0.0438767195629142 0.0
1.3055708853561856 -0.1456269105610188 0.0
1.4869239593040677 0.0928545243156860 0.0
1.5151924202532776 0.0008817066008005 0.0
1.6258794521625579 -0.1029475817477441 0.0
1.6829236827678398 -0.0404205790378721 0.0
1.2229467165625698 -0.0702109099979863 0.0
1.5899113270551042 -0.0182730377648590 0.0
1.0675776640797456 0.0443699781928064 0.0
0.9692066003660332 0.0104520407923421 0.0
1.3695549455573255 -0.0674778694074505 0.0
0.9938682694604815 -0.0110243780037098 0.0
0.9678669665839119 -0.0484191379500917 0.0
1.0904400966750212 0.0107554779480983 0.0
1.2398876183478362 -0.0345258727963308 0.0
1.7945491369785489 -0.1338451521464463 0.0
1.2878135857041950 0.0006375701216450 0.0
1.0413512612244353 -0.0655102165678018 0.0
1.3342857915355162 -0.0763318135166153 0.0
1.3658785586842765 0.0364457930721976 0.0
1.3225397294886465 0.0048924146908726 0.0
1.2367980682893411 -0.0217822466287431 0.0
1.0657343683165510 -0.0306662539090383 0.0
1.1403380638884226 -0.0107189204793080 0.0
1.2576827694514572 0.0181767397535238 0.0
1.4425094797862081 -0.0651041283270282 0.0
1.2342053092797396 -0.0231946946514218 0.0
1.2151242615574898 -0.1937331686448494 0.0
1.1423910960189756 0.3065134089430035 0.0
1.0853182423355432 0.1690453914241099 0.0
1.3267620172656811 -0.0566479500267341 0.0
1.2454443450746717 0.0602711858316423 0.0
1.4019169240872360 0.0577115899050492 0.0
1.2334694677421685 0.0186876243337530 0.0
1.7374960663193004 0.0660040985114971 0.0
1.4739666935746358 -0.0018881146765610 0.0
1.2780046598286414 -0.0409984287822882 0.0
0.9921504874969831 -0.0262692232990526 0.0
1.1318252677296037 -0.0283504454035827 0.0
1.6011786244194315 -0.1313931700741994 0.0
1.3078370246151620 0.0501727835888871 0.0
1.4428637573338952 0.0693679618674393 0.0
1.2955581143828581 -0.0339698467764622 0.0
1.2470694487109031 -0.0410344810943410 0.0
1.5274906672232902 -0.0407297445940043 0.0
1.6028601918869609 0.0413720174969467 0.0
1.2747739035755443 0.0059282186751650 0.0
1.3243343273894961 -0.0750804724573554 0.0
1.1080049825340885 -0.0771994358206451 0.0
1.0323886067593537 -0.0427597789379796 0.0
1.4197946073787882 -0.1409077383517171 0.0
1.2411937417582348 -0.1052004684743756 0.0
1.5815770855774522 0.0128203744615934 0.0
0.7063997254714074 0.0252345813639679 0.0
0.9421415756440290 0.0807429006339310 0.0
1.6622285010903477 0.0144447133977979 0.0
1.2482895854901017 -0.0034437795126084 0.0
0.9795108766250173 -0.0045941359213031 0.0
1.2676998501894723 -0.0706398779781413 0.0
1.2049288374776488 0.0066095683474391 0.0
1.1347899909780785 -0.2596976152202585 0.0
0.9099731714250159 0.0366029477143271 0.0
1.5850721419147373 0.0106480291804250 0.0
1.6577035482186520 -0.0106658716291197 0.0
0.9393850938059165 0.0616280196817721 0.0
1.5999421042031465 0.0555006648462754 0.0
1.0899240696742885 -0.1540567420340224 0.0
1.2283407880514976 0.0317790869413839 0.0
1.1286780812548469 -0.0356121117039143 0.0
1.2359998705831219 0.0185511867779128 0.0
1.6634709395878098 -0.0241200819465984 0.0
1.3772344102692431 -0.1920165399236459 0.0
1.4402621939653895 0.0419433008799112 0.0
1.4502734428322532 0.0861435907888830 0.0
1.3425304249294141 -0.0513241353249758 0.0
0.7489654080895854 -0.0893592426674148 0.0
1.3370816981699396 -0.1299665479194379 0.0
0.6802545812696912 -0.0079417516560587 0.0
1.2562739632175919 -0.0738994426462156 0.0
1.0409622564604448 0.0289782234254162 0.0
1.1924954791357811 -0.0101925243596095 0.0
1.1742505798889933 0.2237690943483355 0.0
1.2073500465028748 0.0724121158516632 0.0
0.8200131208968263 0.0133580638631686 0.0
1.2315924105354199 -0.0676702329767343 0.0
0.7207273179043980 0.0023791888246997 0.0
1.6466914380534428 0.0026966457354823 0.0
1.0176752949180734 0.0768931715526220 0.0
1.3054561871737909 -0.0963616440336499 0.0
1.1355913140372016 0.0013929575042258 0.0
1.4544804495128210 -0.1344453083807453 0.0
0.6334409081911068 -0.0448016994017806 0.0
1.1745155849328290 -0.0772117668195218 0.0
1.2208528197962853 -0.0810515424776649 0.0
1.2703868335218789 -0.0945352136643281 0.0
1.6268800651214226 -0.0134895986911487 0.0
1.5973991375684156 0.0480024472293512 0.0
0.9799014401220112 0.0436163301331713 0.0
1.2441809093385718 -0.0409886338559001 0.0
0.7857905174073447 0.0840183059021318 0.0
0.6152867936212034 -0.0026214125346024 0.0
0.5241761836325034 0.0272406561784248 0.0
1.3113990140091178 -0.0704016115612937 0.0
0.6493559256578983 0.1461718064344229 0.0
0.7205571085792550 -0.0070442491969938 0.0
1.5181588940802613 0.0182956099702539 0.0
1.2986986599440167 -0.0584551376123240 0.0
1.2189477805150615 -0.0355793624824206 0.0
1.5510278709659397 0.0597693103883841 0.0
1.3041683197861846 -0.0561639944415423 0.0
1.5681411720611866 0.0300659794449828 0.0
1.1853570401886910 0.0596106504932172 0.0
1.1252915171124869 -0.2207877944396628 0.0
1.1761235340436209 0.1379242616503578 0.0
1.1079364233522166 0.2150219539952480 0.0
1.0732176811107126 -0.0470406563332757 0.0
1.1841128519113191 0.0268611753470573 0.0
0.9327690594172311 0.0394628507562024 0.0
0.6514508444422642 0.1244345700088876 0.0
0.9919028005333469 -0.0117462010582286 0.0
1.2787554915937838 -0.0287736132094379 0.0
0.7707232895904821 0.0685672436267767 0.0
1.2271187468901061 0.0333014175751110 0.0
1.3109315700463144 -0.0481447727716665 0.0
0.9500132044073645 -0.0104396585490947 0.0
1.2631298501092945 0.0326272324054553 0.0
1.5027912955851321 0.0465089195950595 0.0
1.1950396776481669 -0.1263101960927393 0.0
1.2887407151919164 -0.0884088237733435 0.0
0.6056688020278538 0.1250933682730600 0.0
0.6060290692232191 0.0983602925905325 0.0
0.8431780317829750 -0.0120038956411657 0.0
1.4362607199482929 -0.0854662547259840 0.0
1.3193179425746411 -0.0604832996453350 0.0
0.6318374667699929 0.1428155692871857 0.0
0.7386629930517364 -0.0440369772232391 0.0
1.1179602966436233 0.0185241151831621 0.0
1.4041398582253046 -0.0855831893621289 0.0
0.9867798095560619 -0.0090558373862295 0.0
1.2165071343019580 0.0109905965740434 0.0
1.2983983404246804 -0.0583235600407449 0.0
0.9595907726210898 0.0082286686585028 0.0
0.8738610957314399 0.0695495538572459 0.0
1.3250155580351362 0.0002916257504211 0.0
0.7810057873694073 -0.0267160077715792 0.0
1.5548478346823646 -0.0248301422492512 0.0
0.7732783327649352 0.0211910793031456 0.0
0.7787193876710894 -0.0277355617883758 0.0
1.2613301459424993 -0.0636477320251244 0.0
1.2927222892130712 -0.0136758173086282 0.0
0.9964992225552606 0.0078493953317206 0.0
0.6728873700590554 0.1658207053441955 0.0
0.9066477647052111 -0.0034406368771323 0.0
1.2003242436730028 -0.0357277188366985 0.0
0.8402565784645682 0.0768670806910303 0.0
1.1954991283514449 0.1090822110310447 0.0
1.1613578622569967 -0.0490415212530157 0.0
0.6885650806018676 0.0184702105849116 0.0
1.4861918923166559 -0.0175355726036694 0.0
0.9120708889915465 -0.0107598785278304 0.0
1.5059136802521227 -0.0213326794095765 0.0
0.5078291918352407 -0.0396513867353806 0.0
1.3661631590443051 -0.1474028506779183 0.0
1.5522952033721149 -0.0138729252683858 0.0
0.6352235184671088 0.1081360188022180 0.0
0.7852948648268609 -0.0248003474295581 0.0
1.5636440352763634 0.0693507121363700 0.0
0.9467434528727341 0.0766765414740660 0.0
1.5414741923685373 0.0519240197919898 0.0
1.0876645599712491 -0.0415976460362474 0.0
0.8090819087539278 -0.0563344469618975 0.0
0.7195561677621131 -0.0211070037381877 0.0
1.0121904670167738 -0.0253115777292404 0.0
0.9960813611974184 0.0294707979067096 0.0
1.4602915419344504 0.0122072445283641 0.0
0.5752733803256258 0.0358721087808733 0.0
0.8772768946372516 -0.0593540275128151 0.0
0.8491173296513524 0.0525951404720306 0.0
1.4198206268295770 0.0719971147862379 0.0
0.8068570079758149 -0.1958217926246242 0.0
0.8278258951348680 -0.0258542567775551 0.0
0.5431064153702005 -0.0465619073688191 0.0
1.1321277256933222 -0.0053030771882895 0.0
0.7483510303692517 0.1743940838393433 0.0
0.8970694527985166 0.0429357998558709 0.0
1.2593068498461215 -0.1300023431348475 0.0
0.7748688826208686 -0.0163384314463069 0.0
0.9041924233208040 -0.0023479208374429 0.0
1.0866935368149009 -0.0334265953479515 0.0
0.7946633330188410 -0.0267107977120224 0.0
0.7668984573490615 -0.0459228703603118 0.0
1.4621468192144011 0.0301974839496167 0.0
0.8069176352700668 -0.0311050497580660 0.0
1.0352981926697855 -0.0554127545985723 0.0
0.8396397604407354 0.0547026354647347 0.0
1.2995046373879249 -0.0600394999505406 0.0
0.6542219367775829 -0.0144058404976446 0.0
0.4705980348655600 0.0088797622072029 0.0
1.1496242859648997 -0.0504116136557173 0.0
0.8410112922115658 0.0967324397429000 0.0
0.7935634755906571 -0.0173442636217593 0.0
0.9561192294009073 0.0561577607903970 0.0
1.2447682099706359 -0.0197159281788639 0.0
0.6746229400835304 -0.0184010033677278 0.0
1.2041588933407810 0.1776132593334424 0.0
1.4722816932895995 0.0014584910445827 0.0
0.7118540654305784 -0.0117702834369420 0.0
1.1362259304258659 0.0056028486645119 0.0
1.2280977119641656 -0.0444625001591990 0.0
1.1489717173430674 -0.0437558607054527 0.0
1.3207897038674576 -0.0993386653558619 0.0
0.5264552028793115 0.1900971981654873 0.0
1.7226512185092500 0.0208477394154587 0.0
1.2560578041642687 0.0218569258273848 0.0
0.5831221317542963 0.0515072883783411 0.0
1.3576611907250313 -0.1157452042903766 0.0
1.4659120876260183 -0.0949914336160099 0.0
0.6618604790033967 -0.0046782871586171 0.0
1.0223434123388169 -0.0026997079976159 0.0
0.6712933008831367 -0.0392572975014957 0.0
0.9513143205478991 -0.0773837247514329 0.0
0.7856607647078855 -0.0542864254588834 0.0
0.4541315355434065 0.1979722347136975 0.0
1.1550466377032800 0.1941490284477783 0.0
1.5944086409822329 0.0126733784876500 0.0
0.6114538139535270 0.2047916323627491 0.0
1.5649733517774813 -0.0554938468359175 0.0
1.7434437229182145 0.0918743021766869 0.0
0.5925862685588907 0.1886102513419936 0.0
1.4727595056619667 0.0436290948591533 0.0
1.3972148884599138 -0.1425002640532458 0.0
0.9306413989188866 0.2448073796458420 0.0
1.2964476221999173 -0.0177116816096572 0.0
1.3225265946886309 0.0170739697123074 0.0
0.7805244014927017 0.0899167264587607 0.0
1.3368822210009663 -0.1016057820077807 0.0
0.7182438117426128 -0.0561223108804111 0.0
0.6447569379750833 0.1752763293512836 0.0
0.4609912152527143 0.0266232802857758 0.0
1.2400312179086528 -0.0333113812597997 0.0
0.8903041334482794 -0.2708343615098032 0.0
1.4066256587462591 0.0948460705591037 0.0
1.2935546805950111 -0.0910870377305298 0.0
0.5738792026519739 -0.0108705520488485 0.0
0.5968991278569178 0.0471642977997751 0.0
0.7041983183761532 0.0175821513507002 0.0
1.1159633547010079 0.0202204099306765 0.0
1.1958876573888126 0.2502730695869993 0.0
0.5836950600107738 -0.0368269999680754 0.0
1.1738609427896582 -0.0446652039012585 0.0
0.5980575083780566 0.0424011908193897 0.0
1.5706281844073224 0.0383356070189007 0.0
0.4942447543233389 0.2319319487029949 0.0
0.7583009978736960 -0.1189496237209490 0.0
1.5314739096317611 -0.0449795847758441 0.0
1.2598611811340461 0.0322539724135951 0.0
1.4557031578514579 -0.1248130792753482 0.0
0.6893742297870511 0.0057518438900568 0.0
0.8685576066975973 -0.0340161563816862 0.0
1.4427165915196429 -0.1004073558348308 0.0
1.3032742631369090 -0.0586450913515204 0.0
1.0191140973175432 0.0608573191047754 0.0
1.4389513018448219 0.0356936798734303 0.0
1.2874276012427679 -0.0696301525437250 0.0
1.2324762690426279 0.1125827089787385 0.0
0.9428472030625235 -0.0066537232424642 0.0
0.7411333590938348 -0.0217186477589426 0.0
0.6721833588540848 -0.0459086742861803 0.0
1.3047792894353267 -0.0707912204635851 0.0
1.2879894290121445 -0.0383932942030946 0.0
1.1066821439089121 0.1065177702528218 0.0
0.3874983109431622 0.0292628183195579 0.0
1.4283493426303475 -0.0995712286598256 0.0
0.3429218033714705 0.1111259430381506 0.0
0.6926698816508073 0.1194512109903447 0.0
1.1329798819182886 0.0036560011024244 0.0
0.5429796518019441 -0.1169658753950287 0.0
1.1470025192702471 -0.3048977449336365 0.0
1.3223084645100234 -0.0640651587738443 0.0
1.6071808171952486 -0.0167910246337691 0.0
0.7295606320747082 0.1113616571098981 0.0
1.5244612747070818 -0.0597806576067289 0.0
0.9220555279738184 -0.0326161959575646 0.0
1.3341431769210546 -0.0548770436076988 0.0
0.9258395810842439 -0.0262362885528116 0.0
0.5393424592500085 0.1872549861436721 0.0
0.9107111165255579 -0.0532778035375685 0.0
1.0308930009855994 -0.0632531614933506 0.0