# vtk DataFile Version 3.0
LucasCarvalhoTCC Results
ASCII

DATASET POLYDATA
FIELD FieldData 1
TIME 1 1 double
2.6

POINTS 600 float
0.0 2.0 0.0
0.25 1.989125 0.0
0.5 1.958 0.0
0.75 1.908875 0.0
1.0 1.844 0.0
1.25 1.765625 0.0
1.5 1.676 0.0
1.75 1.577375 0.0
2.0 1.472 0.0
2.25 1.362125 0.0
2.5 1.25 0.0
2.75 1.137875 0.0
3.0 1.028 0.0
3.25 0.922625 0.0
3.5 0.8240000000000001 0.0
3.75 0.734375 0.0
4.0 0.6560000000000001 0.0
4.25 0.5911249999999999 0.0
4.5 0.542 0.0
4.75 0.510875 0.0
5.0 0.5 0.0
5.25 0.5036250000000004 0.0
5.5 0.5140000000000002 0.0
5.75 0.5303750000000003 0.0
6.0 0.5519999999999996 0.0
6.25 0.578125 0.0
6.5 0.6080000000000005 0.0
6.75 0.6408749999999999 0.0
7.0 0.6760000000000002 0.0
7.25 0.7126249999999992 0.0
7.5 0.75 0.0
7.75 0.7873750000000004 0.0
8.0 0.8239999999999994 0.0
8.25 0.8591250000000001 0.0
8.5 0.8919999999999999 0.0
8.75 0.921875 0.0
9.0 0.9479999999999991 0.0
9.25 0.9696250000000011 0.0
9.5 0.9859999999999984 0.0
9.75 0.9963750000000013 0.0
10.0 1.0 0.0
0.0 0.0 0.0
10.0 0.0 0.0
0.124999999999674 1.994562500000014 0.0
0.3749999999999947 1.973562500000001 0.0
0.6249999999999918 1.933437500000002 0.0
0.874999999999979 1.876437500000006 0.0
1.124999999999963 1.804812500000012 0.0
1.374999999999944 1.72081250000002 0.0
1.624999999999985 1.626687500000006 0.0
1.874999999999953 1.52468750000002 0.0
2.124999999999936 1.417062500000028 0.0
2.374999999999952 1.306062500000022 0.0
2.624999999999919 1.193937500000036 0.0
2.87499999999992 1.082937500000035 0.0
3.124999999999946 0.9753125000000229 0.0
3.374999999999948 0.8733125000000204 0.0
3.624999999999972 0.77918750000001 0.0
3.874999999999963 0.6951875000000118 0.0
4.124999999999968 0.6235625000000082 0.0
4.394409538298571 0.5627485257243309 0.0
4.583333333333322 0.5316250000000015 0.0
4.666666666666668 0.5212499999999999 0.0
4.833333333333334 0.50725 0.0
4.916666666666667 0.503625 0.0
5.083333333333334 0.5012083333333335 0.0
5.166666666666666 0.502416666666667 0.0
5.333333333333334 0.5070833333333337 0.0
5.416666666666667 0.510541666666667 0.0
5.583333333333334 0.5194583333333336 0.0
5.666666666666666 0.5249166666666669 0.0
5.833333333333338 0.5375833333333339 0.0
5.916666666666661 0.544791666666666 0.0
6.105781577147724 0.5630541748119369 0.0
6.375 0.5930625000000003 0.0
6.624999999999988 0.6244374999999988 0.0
6.874999999999994 0.6584374999999991 0.0
7.125 0.6943124999999997 0.0
7.375 0.7313124999999996 0.0
7.624999999999994 0.7686874999999992 0.0
7.875 0.8056874999999999 0.0
8.125 0.8415624999999998 0.0
8.374999999999991 0.8755624999999989 0.0
8.624999999999995 0.9069374999999993 0.0
8.874999999999995 0.9349374999999991 0.0
9.125 0.9588125000000001 0.0
9.375 0.9778124999999998 0.0
9.625 0.9911874999999999 0.0
9.875 0.9981875000000007 0.0
0.0 1.799999999999167 0.0
0.0 1.6 0.0
0.0 1.400000000001387 0.0
0.0 1.200000000002774 0.0
0.0 1.000000000004117 0.0
0.0 0.8000000000033287 0.0
0.0 0.6000000000024965 0.0
0.0 0.4000000000016644 0.0
0.0 0.200000000000832 0.0
0.199999999999856 0.0 0.0
0.3999999999996677 0.0 0.0
0.5999999999994683 0.0 0.0
0.7999999999993286 0.0 0.0
0.9999999999991888 0.0 0.0
1.199999999999033 0.0 0.0
1.399999999998576 0.0 0.0
1.599999999997992 0.0 0.0
1.799999999997408 0.0 0.0
1.999999999996825 0.0 0.0
2.199999999996241 0.0 0.0
2.399999999995657 0.0 0.0
2.599999999995073 0.0 0.0
2.79999999999449 0.0 0.0
2.999999999993906 0.0 0.0
3.199999999993322 0.0 0.0
3.399999999992738 0.0 0.0
3.599999999992154 0.0 0.0
3.799999999991571 0.0 0.0
3.999999999991022 0.0 0.0
4.199999999991187 0.0 0.0
4.399999999991491 0.0 0.0
4.599999999991795 0.0 0.0
4.799999999992099 0.0 0.0
4.999999999992403 0.0 0.0
5.199999999992706 0.0 0.0
5.39999999999301 0.0 0.0
5.599999999993313 0.0 0.0
5.799999999993618 0.0 0.0
5.999999999993922 0.0 0.0
6.199999999994227 0.0 0.0
6.39999999999453 0.0 0.0
6.599999999994833 0.0 0.0
6.799999999995138 0.0 0.0
6.999999999995442 0.0 0.0
7.199999999995747 0.0 0.0
7.39999999999605 0.0 0.0
7.599999999996353 0.0 0.0
7.799999999996658 0.0 0.0
7.999999999996962 0.0 0.0
8.199999999997265 0.0 0.0
8.399999999997569 0.0 0.0
8.599999999997873 0.0 0.0
8.799999999998176 0.0 0.0
8.99999999999848 0.0 0.0
9.199999999998786 0.0 0.0
9.399999999999089 0.0 0.0
9.599999999999392 0.0 0.0
9.799999999999697 0.0 0.0
10.0 0.1999999999995579 0.0
10.0 0.3999999999989749 0.0
10.0 0.5999999999989468 0.0
10.0 0.7999999999994734 0.0
0.913963423524136 0.9126937851647636 0.0
1.629657910441747 0.8286436141773268 0.0
2.300136613917738 0.6369890708869279 0.0
0.5989085226155619 1.38125543468559 0.0
1.274155622640533 1.242773398230304 0.0
2.860215383945273 0.5217401976756945 0.0
9.469653920408135 0.4910067017840992 0.0
8.984679546317787 0.4696119782494839 0.0
8.499397693277212 0.4463630640980716 0.0
3.270918412356206 0.4522692359356972 0.0
1.223039611612243 0.5146439900227544 0.0
2.024812732135938 1.00818256045515 0.0
0.5365376864627701 0.5434316309416508 0.0
8.114834335444021 0.4602948767329583 0.0
7.742261962994204 0.4117304941858466 0.0
0.9443382341364558 1.456061359265878 0.0
1.665275621558886 1.201744468407863 0.0
1.89566112584099 0.4397284596316843 0.0
3.691409759982064 0.3560936332572802 0.0
7.368457390036411 0.3792926046732459 0.0
0.5071184951703254 0.9340893429149442 0.0
0.3822273842356539 1.647625881691675 0.0
5.916285335387544 0.2564903116750689 0.0
5.628860531758535 0.2582323053999509 0.0
5.380471017960128 0.2502349014663197 0.0
5.139244585769944 0.2549145445969738 0.0
2.686085237972266 0.8031095648160084 0.0
4.507599040026292 0.263176944655695 0.0
6.983755234374982 0.3380000000001097 0.0
9.720925955181613 0.6635813325201156 0.0
1.288006195687152 0.8759679848503046 0.0
9.20556379558699 0.6923669083350594 0.0
2.319913492084225 0.9512500928262699 0.0
8.73203612228155 0.6151508464420534 0.0
4.868679481352366 0.2526598053940744 0.0
4.10358044398202 0.3012437332986487 0.0
6.602422946953217 0.3126221952225479 0.0
2.534693527909069 0.3583319619586092 0.0
6.193332317503376 0.2894654215336858 0.0
0.8804088217382579 0.3735513844182569 0.0
0.7663303172393539 1.679065267574722 0.0
3.081211528283084 0.6968015573146217 0.0
1.241762689885858 1.521465072418641 0.0
1.573472750763779 0.3374689934575129 0.0
1.475107933015155 1.403918544935278 0.0
0.8212739503602162 1.195790902469637 0.0
4.681049549092561 0.3558177014380842 0.0
9.439519900118443 0.7366884444350511 0.0
2.201393787062887 0.3261463175998884 0.0
2.015369189818184 0.7109460688851087 0.0
8.32727069655695 0.6360373328685593 0.0
8.961488632119996 0.7119124617705204 0.0
9.22773266034565 0.3109430611770705 0.0
0.3000513553073295 1.178778127105867 0.0
1.91985473842554 1.233084801189704 0.0
8.749827252515535 0.3049638092131281 0.0
3.50551132590258 0.5576614504134195 0.0
3.040500962406976 0.290446660105673 0.0
9.72097519930939 0.3037986529514364 0.0
0.3073166349239687 0.3249300260882615 0.0
0.2948185331392187 0.7229775107826154 0.0
1.46029425821417 1.06552904833304 0.0
0.8085718129253527 0.673531272847494 0.0
7.913326191751847 0.5738936378911789 0.0
8.295349499871781 0.2556682497524391 0.0
4.31359646688283 0.3665214152100782 0.0
7.542842082022704 0.5249918217576657 0.0
1.058357552227335 1.116692590939024 0.0
2.214297272750292 1.159898327391242 0.0
2.901187336648686 0.8282146771898153 0.0
3.933498145061447 0.4325241689837319 0.0
7.956006969037984 0.2667411694088205 0.0
7.172393179434975 0.4835114022190097 0.0
1.440243631802057 0.6689433452646625 0.0
3.458541882144431 0.2581755850286561 0.0
5.791617360065465 0.3978542524532168 0.0
5.981529865241493 0.3900667299390458 0.0
1.083462543944253 0.7203994120564634 0.0
1.78518471978951 1.008552691762234 0.0
2.77360122246243 0.2689852172070111 0.0
2.565134389978369 0.9928826788184764 0.0
2.543046005790158 0.6034091352176242 0.0
3.293038780485421 0.6769811703257343 0.0
6.790787388653942 0.4353933509634578 0.0
1.140204059461831 0.2538227257007896 0.0
0.6242104065654487 0.2738473600765566 0.0
6.393430278703709 0.3766405270445946 0.0
8.533059390324546 0.6950580701614406 0.0
0.9961263693263854 1.612128843772703 0.0
1.697598586607002 0.5781950992180334 0.0
8.087930458724863 0.6517815437732153 0.0
0.2748906317360928 1.770749713716887 0.0
0.5785110002099415 1.757022387413085 0.0
5.550004842562332 0.3852675728674634 0.0
4.948161884155141 0.3480305424737933 0.0
1.741244734175577 1.381979611033466 0.0
5.312408927381063 0.3621256994047111 0.0
0.2492139438157334 1.453132031680879 0.0
7.597720022451821 0.2370268512906596 0.0
9.471021754366422 0.2472916581956264 0.0
7.714083843672875 0.600212897672991 0.0
4.520815862079482 0.3946753115680038 0.0
2.47356661122767 0.8007389356831706 0.0
7.325494311403363 0.528948935030723 0.0
7.147005275585743 0.2709670165999667 0.0
3.758046446289313 0.5474783841545341 0.0
3.893717059615281 0.1664960777568404 0.0
2.152835534199412 0.8614028741175742 0.0
8.995993312441625 0.1933410497113667 0.0
1.077676137392001 1.368204555688504 0.0
0.2429906229817933 0.9816066505657851 0.0
0.6261765586985547 1.180540007244081 0.0
9.81151801018651 0.816223424030724 0.0
0.6725442903064565 0.8425384371773644 0.0
1.74584086891446 0.2617492458514414 0.0
0.7667820686164357 1.440842670056678 0.0
8.539133693395232 0.1910926418035274 0.0
5.129145653242096 0.3632579123815574 0.0
6.816538849831732 0.2013284992826486 0.0
2.108503954619862 0.5359795950847274 0.0
6.933669557130528 0.4980836483776163 0.0
3.071406705674529 0.4919421055852253 0.0
2.001240035874449 0.2292738462614773 0.0
4.782473531509697 0.4061213127162872 0.0
0.5734126310178208 1.536352720889636 0.0
9.796714529589472 0.4898048068674991 0.0
5.678359041645315 0.373719883316694 0.0
5.427661572827738 0.3646059266294788 0.0
2.075214597532947 1.226969224366912 0.0
3.251521478555126 0.2637671977660283 0.0
2.722180837291864 0.9710783334409533 0.0
9.333262390342384 0.8479609887828539 0.0
1.367251332770493 0.2041553944563636 0.0
1.870721433742522 0.7905989208842599 0.0
1.387906762913351 1.555741687747287 0.0
9.559918612869 0.8444052974080497 0.0
9.286795039366257 0.4698254290795815 0.0
1.507117480770146 1.225129516597721 0.0
[...]
POINT_DATA 600

VECTORS Velocity float
0.0000000000000000 0.0000000000000000 0.0
0.0000000000000000 0.0000000000000000 0.0
0.0000000000000000 0.0000000000000000 0.0
0.0000000000000000 0.0000000000000000 0.0
0.0000000000000000 0.0000000000000000 0.0
0.0000000000000000 0.0000000000000000 0.0
0.0000000000000000 0.0000000000000000 0.0
0.0000000000000000 0.0000000000000000 0.0
0.0000000000000000 0.0000000000000000 0.0
0.0000000000000000 0.0000000000000000 0.0
0.0000000000000000 0.0000000000000000 0.0
0.0000000000000000 0.0000000000000000 0.0
0.0000000000000000 0.0000000000000000 0.0
0.0000000000000000 0.0000000000000000 0.0
0.0000000000000000 0.0000000000000000 0.0
0.0000000000000000 0.0000000000000000 0.0
0.0000000000000000 0.0000000000000000 0.0
0.0000000000000000 0.0000000000000000 0.0
0.0000000000000000 0.0000000000000000 0.0
0.0000000000000000 0.0000000000000000 0.0
0.0000000000000000 0.0000000000000000 0.0
0.0000000000000000 0.0000000000000000 0.0
0.0000000000000000 0.0000000000000000 0.0
0.0000000000000000 0.0000000000000000 0.0
0.0000000000000000 0.0000000000000000 0.0
0.0000000000000000 0.0000000000000000 0.0
0.0000000000000000 0.0000000000000000 0.0
0.0000000000000000 0.0000000000000000 0.0
0.0000000000000000 0.0000000000000000 0.0
0.0000000000000000 0.0000000000000000 0.0
0.0000000000000000 0.0000000000000000 0.0
0.0000000000000000 0.0000000000000000 0.0
0.0000000000000000 0.0000000000000000 0.0
0.0000000000000000 0.0000000000000000 0.0
0.0000000000000000 0.0000000000000000 0.0
0.0000000000000000 0.0000000000000000 0.0
0.0000000000000000 0.0000000000000000 0.0
0.0000000000000000 0.0000000000000000 0.0
0.0000000000000000 0.0000000000000000 0.0
0.0000000000000000 0.0000000000000000 0.0
0.0000000000000000 0.0000000000000000 0.0
0.0000000000000000 0.0000000000000000 0.0
0.8243690097767198 -0.1314695017048989 0.0
0.0000000000000000 0.0000000000000000 0.0
0.0000000000000000 0.0000000000000000 0.0
0.0000000000000000 0.0000000000000000 0.0
0.0000000000000000 0.0000000000000000 0.0
0.0000000000000000 0.0000000000000000 0.0
0.0000000000000000 0.0000000000000000 0.0
0.0000000000000000 0.0000000000000000 0.0
0.0000000000000000 0.0000000000000000 0.0
0.0000000000000000 0.0000000000000000 0.0
0.0000000000000000 0.0000000000000000 0.0
0.0000000000000000 0.0000000000000000 0.0
0.0000000000000000 0.0000000000000000 0.0
0.0000000000000000 0.0000000000000000 0.0
0.0000000000000000 0.0000000000000000 0.0
0.0000000000000000 0.0000000000000000 0.0
0.0000000000000000 0.0000000000000000 0.0
0.0000000000000000 0.0000000000000000 0.0
0.0000000000000000 0.0000000000000000 0.0
0.0000000000000000 0.0000000000000000 0.0
0.0000000000000000 0.0000000000000000 0.0
0.0000000000000000 0.0000000000000000 0.0
0.0000000000000000 0.0000000000000000 0.0
0.0000000000000000 0.0000000000000000 0.0
0.0000000000000000 0.0000000000000000 0.0
0.0000000000000000 0.0000000000000000 0.0
0.0000000000000000 0.0000000000000000 0.0
0.0000000000000000 0.0000000000000000 0.0
0.0000000000000000 0.0000000000000000 0.0
0.0000000000000000 0.0000000000000000 0.0
0.0000000000000000 0.0000000000000000 0.0
0.0000000000000000 0.0000000000000000 0.0
0.0000000000000000 0.0000000000000000 0.0
0.0000000000000000 0.0000000000000000 0.0
0.0000000000000000 0.0000000000000000 0.0
0.0000000000000000 0.0000000000000000 0.0
0.0000000000000000 0.0000000000000000 0.0
0.0000000000000000 0.0000000000000000 0.0
0.0000000000000000 0.0000000000000000 0.0
0.0000000000000000 0.0000000000000000 0.0
0.0000000000000000 0.0000000000000000 0.0
0.0000000000000000 0.0000000000000000 0.0
0.0000000000000000 0.0000000000000000 0.0
0.0000000000000000 0.0000000000000000 0.0
0.0000000000000000 0.0000000000000000 0.0
0.0000000000000000 0.0000000000000000 0.0
0.0000000000000000 0.0000000000000000 0.0
1.0000000000000000 0.0000000000000000 0.0
1.0000000000000000 0.0000000000000000 0.0
1.0000000000000000 0.0000000000000000 0.0
1.0000000000000000 0.0000000000000000 0.0
1.0000000000000000 0.0000000000000000 0.0
1.0000000000000000 0.0000000000000000 0.0
1.0000000000000000 0.0000000000000000 0.0
1.0000000000000000 0.0000000000000000 0.0
1.0000000000000000 0.0000000000000000 0.0
0.0000000000000000 0.0000000000000000 0.0
0.0000000000000000 0.0000000000000000 0.0
0.0000000000000000 0.0000000000000000 0.0
0.0000000000000000 0.0000000000000000 0.0
0.0000000000000000 0.0000000000000000 0.0
0.0000000000000000 0.0000000000000000 0.0
0.0000000000000000 0.0000000000000000 0.0
0.0000000000000000 0.0000000000000000 0.0
0.0000000000000000 0.0000000000000000 0.0
0.0000000000000000 0.0000000000000000 0.0
0.0000000000000000 0.0000000000000000 0.0
0.0000000000000000 0.0000000000000000 0.0
0.0000000000000000 0.0000000000000000 0.0
0.0000000000000000 0.0000000000000000 0.0
0.0000000000000000 0.0000000000000000 0.0
0.0000000000000000 0.0000000000000000 0.0
0.0000000000000000 0.0000000000000000 0.0
0.0000000000000000 0.0000000000000000 0.0
0.0000000000000000 0.0000000000000000 0.0
0.0000000000000000 0.0000000000000000 0.0
0.0000000000000000 0.0000000000000000 0.0
0.0000000000000000 0.0000000000000000 0.0
0.0000000000000000 0.0000000000000000 0.0
0.0000000000000000 0.0000000000000000 0.0
0.0000000000000000 0.0000000000000000 0.0
0.0000000000000000 0.0000000000000000 0.0
0.0000000000000000 0.0000000000000000 0.0
0.0000000000000000 0.0000000000000000 0.0
0.0000000000000000 0.0000000000000000 0.0
0.0000000000000000 0.0000000000000000 0.0
0.0000000000000000 0.0000000000000000 0.0
0.0000000000000000 0.0000000000000000 0.0
0.0000000000000000 0.0000000000000000 0.0
0.0000000000000000 0.0000000000000000 0.0
0.0000000000000000 0.0000000000000000 0.0
0.0000000000000000 0.0000000000000000 0.0
0.0000000000000000 0.0000000000000000 0.0
0.0000000000000000 0.0000000000000000 0.0
0.0000000000000000 0.0000000000000000 0.0
0.0000000000000000 0.0000000000000000 0.0
0.0000000000000000 0.0000000000000000 0.0
0.0000000000000000 0.0000000000000000 0.0
0.0000000000000000 0.0000000000000000 0.0
0.0000000000000000 0.0000000000000000 0.0
0.0000000000000000 0.0000000000000000 0.0
0.0000000000000000 0.0000000000000000 0.0
0.0000000000000000 0.0000000000000000 0.0
0.0000000000000000 0.0000000000000000 0.0
0.0000000000000000 0.0000000000000000 0.0
1.0711052114040840 -0.4630067846044568 0.0
0.9663179528868536 -0.1962696198063087 0.0
0.9839061899213889 -0.0296639592656407 0.0
1.0703626636852979 0.3853061135801664 0.0
1.3574893034075117 0.0038185759227918 0.0
1.4415807636551614 -0.0880456750177679 0.0
1.4538971640290215 -0.1797589083911131 0.0
1.2345131602799204 -0.1101901544804956 0.0
1.3316578007496764 -0.0799942752618328 0.0
1.5262377124040469 -0.1150882827291725 0.0
1.5870728721943175 -0.0295218926933144 0.0
1.5317539177248651 0.0199106842236465 0.0
1.5834199058102583 0.0968316463810254 0.0
1.5099650250260677 -0.1199528084385455 0.0
1.1917054660425166 0.0023505324254503 0.0
1.3489804074835119 -0.0985998671377652 0.0
1.2330879056470514 0.2323810139474690 0.0
1.5839005518006650 0.0719246768427994 0.0
1.5625262201324155 0.0093078987112060 0.0
1.1587776289499603 -0.0479265338470987 0.0
1.2608678793393164 -0.0237980251860074 0.0
1.1542177011431938 -0.0586434255871454 0.0
1.5275380646194610 -0.0564088069482690 0.0
1.5806053123259114 0.0546371911008825 0.0
1.2071872432912958 0.0926611325475113 0.0
1.1386796801412016 -0.2438581993633094 0.0
1.4958435444316756 0.0146660549644242 0.0
1.4958521455137226 -0.0178261258844105 0.0
1.5254336581425831 0.0355727318210212 0.0
1.5473851832009333 0.0132593512572295 0.0
1.3231693150508714 -0.1167293529749198 0.0
1.4873040618185902 0.0097790643623367 0.0
1.6541606424249291 0.0255906685405877 0.0
1.3593532275002185 0.1310223394085479 0.0
1.4307527062102279 -0.0442903971338453 0.0
1.3815711588822452 -0.0479213757770707 0.0
1.3318572697632904 -0.1423845605246553 0.0
1.5095169441836307 0.0927119154932022 0.0
1.5119373406149890 0.0022653605397396 0.0
1.6249682642759478 -0.1063826460583770 0.0
1.6830068577972304 -0.0381463215941833 0.0
1.2046202854249868 -0.0965940864201151 0.0
1.5893495599797203 -0.0201379602123317 0.0
0.9853059136789932 0.0597345205774504 0.0
0.8677479577311777 0.0333850262781072 0.0
1.3809359966777612 -0.0479281069498588 0.0
0.8873866318576560 0.0302509347396803 0.0
0.8722522773533534 -0.0517089036190949 0.0
0.9977212035363550 0.0470434568795148 0.0
1.3200476726459649 -0.0511258862700402 0.0
1.8003302588823069 -0.1359035026730485 0.0
1.2794904844810879 0.0005278051833355 0.0
0.9865756223480259 -0.0688212647521807 0.0
1.4407946519688899 -0.1077642872059976 0.0
1.3652334717580710 0.0409840163452704 0.0
1.3271584397012328 0.0013921373837499 0.0
1.2183171558386445 -0.0206220565548642 0.0
1.0838536809012846 -0.0703289499327877 0.0
1.0701612525300905 0.0213365597518122 0.0
1.2493327895548911 0.0238975389493196 0.0
1.4504009411920176 -0.0619764446468242 0.0
1.2283060660442571 -0.0296976493525774 0.0
1.2038738274907472 -0.2081524997645887 0.0
1.1266511614563082 0.3399530328356113 0.0
1.1001222293700934 0.2007109154491147 0.0
1.4314595144396767 -0.0743778252513069 0.0
1.2992944521262846 0.0963272904513604 0.0
1.4001789512900242 0.0538461431093611 0.0
1.2316530532702958 0.0219236808728222 0.0
1.7382927876636702 0.0680894152648140 0.0
1.4836958415643151 -0.0100537324290016 0.0
1.3804702298748024 -0.0574644950078199 0.0
0.9211732414901255 0.0141477207124441 0.0
1.0988557881131182 -0.0136959331443213 0.0
1.6051432473974554 -0.1338969936197300 0.0
1.3109741238424664 0.0491782155092320 0.0
1.4478808209171237 0.0717185922372137 0.0
1.3796829567235540 -0.0529471620975621 0.0
1.2416158328528724 -0.0435068744591015 0.0
1.5386660566898225 -0.0424822912169822 0.0
1.6091687150967160 0.0404832002754885 0.0
1.3729238595693365 0.0188011227996450 0.0
1.4094155748958161 -0.0879002922009914 0.0
1.0788825674889586 -0.0923416767763111 0.0
0.9777364835373118 0.0028411785141008 0.0
1.5076703169759649 -0.1766609477014122 0.0
1.2376039839695108 -0.0973684844435585 0.0
1.5844855023497932 0.0135074158056150 0.0
0.5968629529518652 0.0288025897700753 0.0
0.8691419595303450 0.1000520044484273 0.0
1.6626129881917313 0.0133952676103934 0.0
1.2475517397804661 -0.0067752727471710 0.0
0.8730224931873549 0.0283416117771802 0.0
1.3151970933715957 -0.0979726750824561 0.0
1.1921089735624768 0.0055576724920318 0.0
1.1085883687521672 -0.2795095530862990 0.0
0.8211351882184215 0.0371623552092617 0.0
1.5943198908223899 0.0113755954431341 0.0
1.6643707449644916 -0.0093020522432500 0.0
0.8432779074884541 0.1019058206937051 0.0
1.6076313398661533 0.0560967720823429 0.0
1.0907295397829573 -0.2146963472435038 0.0
1.2214868059746218 0.0325826596435901 0.0
1.0992251028930176 -0.0417266152089847 0.0
1.2308126949821072 0.0146161983108767 0.0
1.6698947700889069 -0.0217770515021503 0.0
1.4406502455239938 -0.2127176910248976 0.0
1.4477941490586861 0.0454825292993768 0.0
1.4483331128152634 0.0887685073754008 0.0
1.3485402527448618 -0.0516270136182755 0.0
0.7454869258348426 -0.0907762003781694 0.0
1.4353375387459872 -0.1530434771850061 0.0
0.6561030482898721 -0.0050898996444806 0.0
1.2403586794425800 -0.0612567389611226 0.0
1.0528223743720053 0.0190654967351435 0.0
1.2604269712349687 -0.0285192872124376 0.0
1.1678619005999513 0.2321933561566537 0.0
1.2862797339783500 0.0960266711359823 0.0
0.7202870958355689 0.0010556003756827 0.0
1.2187687434008549 -0.0774797911765565 0.0
0.7065075620260434 0.0042359091404863 0.0
1.6559203827831308 0.0019180926249542 0.0
1.0151215231587283 0.0772653784475036 0.0
1.3411135111201624 -0.1277392448120526 0.0
1.1381033179803577 0.0014059839596817 0.0
1.4849206709323088 -0.1419127964364605 0.0
0.5638786164510389 -0.0442974925119777 0.0
1.1805107918680533 -0.0784358119103675 0.0
1.1880046935412407 -0.1170123687828282 0.0
1.2860251292564768 -0.1027635575709703 0.0
1.6368401577069425 -0.0139174744846120 0.0
1.6044937186261417 0.0502272315500229 0.0
0.9006003009170349 0.0754340779856272 0.0
1.2411337143787768 -0.0444958029171373 0.0
0.7477884903355648 0.1088000222354375 0.0
0.5931552091471496 -0.0028110675598270 0.0
0.4412288817710454 0.0230417200009384 0.0
1.4329107362352724 -0.0989316411515335 0.0
0.5739559391508195 0.1722591547976235 0.0
0.7007603671618972 -0.0058152269676667 0.0
1.5595181244240182 0.0246988113505550 0.0
1.2905229296552849 -0.0537783258050145 0.0
1.2090731187842017 -0.0402479671553962 0.0
1.5674030151128897 0.0682733546123543 0.0
1.4141688762537934 -0.0684256499706724 0.0
1.5715292635466964 0.0290321022660449 0.0
1.1825570163276065 0.0550115511175450 0.0
1.1144374772015380 -0.2529467972542871 0.0
1.2184493836558359 0.1751104898506238 0.0
1.1081477105080266 0.2366190159295545 0.0
1.0737891636895531 -0.0462124022176447 0.0
1.1845348550910684 0.0251435296544188 0.0
0.9319262719551178 0.0424175947964491 0.0
0.5928158336268515 0.1547944858556935 0.0
0.9917579981168464 -0.0116637238468598 0.0
1.4028243000947351 -0.0397779201226759 0.0
0.7659862716694275 0.0675594331587916 0.0
1.2001430995964926 0.0568478688660827 0.0
1.4485402807779622 -0.0670956304264496 0.0
0.8891377958919682 -0.0204302593364586 0.0
1.2624014579585874 0.0309515044031035 0.0
1.5251865105896720 0.0507303192306738 0.0
1.1918412792607951 -0.1863586241979951 0.0
1.3108302196065891 -0.1076822786392993 0.0
0.5314882261993167 0.1503560458768160 0.0
0.5303113510258434 0.1206147505370269 0.0
0.8398522885816666 -0.0136044296240898 0.0
1.4715448006958145 -0.0816392320790441 0.0
1.4417681723609457 -0.0830702193785478 0.0
0.5616791684622496 0.1729648495194467 0.0
0.6936405522462801 -0.0587034928063450 0.0
1.1213710526051792 0.0211910445285179 0.0
1.4616653069193171 -0.1120094862382208 0.0
0.9848672926692470 -0.0136278227192753 0.0
1.3081799591766354 0.0103047529274194 0.0
1.3859667334892924 -0.0894114660933109 0.0
0.9654119278328596 0.0082269244102583 0.0
0.8747131107079533 0.0706562697218624 0.0
1.3265150910177381 -0.0011208791126126 0.0
0.7692733524269747 -0.0261472631442532 0.0
1.5634785071191200 -0.0255668948632213 0.0
0.7662211116177429 0.0219495267756668 0.0
0.7728870212368755 -0.0297031892826734 0.0
1.2932532023202665 -0.0786730290958983 0.0
1.3866690794685166 -0.0122384555858777 0.0
0.9903346415215042 0.0112733761733928 0.0
0.6053196488461876 0.1931983708725747 0.0
0.9123186427169885 -0.0047882212696279 0.0
1.1570645781573039 -0.0515102359328317 0.0
0.8149538920140915 0.0968722056165402 0.0
1.1729875132013734 0.1434947294560789 0.0
1.0891736042029829 -0.0157509700826998 0.0
0.6808592300908147 0.0183974817719735 0.0
1.5237296963079079 -0.0210527264619449 0.0
0.9046538778419116 -0.0121368608475084 0.0
1.5476718965997343 -0.0258435323985934 0.0
0.4324162682813185 -0.0334825765954364 0.0
1.4548348596321303 -0.1694261531466469 0.0
1.5994674255401686 -0.0122798786986159 0.0
0.5572123528228650 0.1173786667896878 0.0
0.7793043352422491 -0.0246688031699595 0.0
1.5839555739840867 0.0682014129025653 0.0
0.9350934905748393 0.0937561778756460 0.0
1.5619391861990133 0.0573262512037980 0.0
0.9944817373014547 -0.0116612257796549 0.0
0.8004394196135614 -0.0596202489951150 0.0
0.6753827202802829 -0.0350676979858092 0.0
1.0204057831713469 -0.0256987996763559 0.0
1.0036231720999393 0.0297588107060198 0.0
1.4551231406819001 0.0138243615566896 0.0
0.5590390485468228 0.0373295855509872 0.0
0.8821280802625273 -0.0615689862367136 0.0
0.8520928052753309 0.0506259584036475 0.0
1.4235906472994424 0.0799384510583945 0.0
0.8014874556091683 -0.1995812092345408 0.0
0.8299163170976164 -0.0260080335660806 0.0
0.5231685822138846 -0.0486810099183543 0.0
1.0491905627114759 0.0255574108983083 0.0
0.7134170432216101 0.1975480469013046 0.0
0.9031325374629908 0.0437308183923485 0.0
1.2668729439900901 -0.1184652071890126 0.0
0.7630504616982962 -0.0186963488908695 0.0
0.9012119756724509 -0.0016612906589965 0.0
0.9985426240018763 -0.0100913682989199 0.0
0.7923237657469161 -0.0310802326107590 0.0
0.7692216116893966 -0.0445018379455540 0.0
1.4924416932118898 0.0253419810201637 0.0
0.8007397949970962 -0.0316435878337421 0.0
1.0388992249243005 -0.0819709161262917 0.0
0.8394845397299752 0.0547759023408645 0.0
1.2958639829867225 -0.0347365469623874 0.0
0.6334685857150522 -0.0190284865178988 0.0
0.3968580893802860 0.0057481943782889 0.0
1.1869646990237070 -0.0986932717180902 0.0
0.8366378708217852 0.1028147412103087 0.0
0.7951377204085011 -0.0163812805595493 0.0
0.9603659615563412 0.0561044364240671 0.0
1.3459023491141253 -0.0310684851644626 0.0
0.6543179173843089 -0.0211854681240513 0.0
1.2159210183075599 0.1884090961894805 0.0
1.5024654260243353 0.0063722140211378 0.0
0.7108348438452768 -0.0127240114115946 0.0
1.1433196871356941 0.0043427934342832 0.0
1.2738477704791451 -0.0657446132781994 0.0
1.0895341635419371 -0.0517563179108383 0.0
1.4344901566801240 -0.1248859907902569 0.0
0.4697849162852546 0.2127379851328886 0.0
1.7300674795602655 0.0213062710838953 0.0
1.3540198393676055 0.0336094289700562 0.0
0.5575313372564025 0.0508849380369078 0.0
1.4606212370598795 -0.1497812045905146 0.0
1.5130847120296500 -0.0889905169377471 0.0
0.6356327434342186 -0.0075485208920973 0.0
1.0251927927055680 -0.0154011029143382 0.0
0.6730238054613089 -0.0388417052036961 0.0
0.9513147051216215 -0.0773630965228702 0.0
0.7842353340986986 -0.0530986822522055 0.0
0.4013789667784741 0.2149555623592077 0.0
1.1229710273943578 0.2461617654143443 0.0
1.5951153019167488 0.0095826437611615 0.0
0.5810911297737110 0.2203020389228069 0.0
1.5774888503126201 -0.0628945307602506 0.0
1.7460332754881633 0.0985585534314671 0.0
0.5426587858306111 0.2139161870274740 0.0
1.4836662256261337 0.0463142414498100 0.0
1.4141281256654121 -0.1376552722451085 0.0
0.9245190162416591 0.2502829060845937 0.0
1.2888515658288195 -0.0205720612084800 0.0
1.3184801450908683 0.0215722128916155 0.0
0.7802702651800899 0.0898491271471386 0.0
1.3387914194991657 -0.1157822682979587 0.0
0.6959457833483638 -0.0566033297831467 0.0
0.5833077275316662 0.1983473472356271 0.0
0.4066421151580298 0.0208400951903334 0.0
1.2043773874039883 -0.0207479843061134 0.0
0.8840660084694786 -0.2759526825348244 0.0
1.4199582683328673 0.1017142587049414 0.0
1.2967033240913293 -0.1109407210588890 0.0
0.5599505292785435 -0.0119016845920728 0.0
0.5808356456955737 0.0488242061976769 0.0
0.6992816190509483 0.0180421384202610 0.0
1.1591486209347313 0.0018036035083950 0.0
1.2030850849692054 0.3013909639307076 0.0
0.5632247335503723 -0.0329502986985714 0.0
1.1287288789746392 -0.0617433086367382 0.0
0.5926712646331087 0.0405200005763606 0.0
1.5695863380217472 0.0404334946676584 0.0
0.4562958822618439 0.2508273550377703 0.0
0.7411871475156458 -0.1221573701293630 0.0
1.5415845529966583 -0.0448944607044610 0.0
1.2531969445115470 0.0384798082975235 0.0
1.5294237525104675 -0.1395014723646718 0.0
0.6834414634571085 0.0059831180824803 0.0
0.8719656219619071 -0.0342055223891135 0.0
1.4584731977728400 -0.1040600048743044 0.0
1.4096782938092298 -0.0846864462014312 0.0
1.0254649285568795 0.0648379778632902 0.0
1.4499144556991199 0.0376275326586319 0.0
1.3376154566343297 -0.0692998097834507 0.0
1.2749642245940223 0.1541774520698993 0.0
0.8387790879278334 -0.0075686188997399 0.0
0.7443216910411190 -0.0212793093026034 0.0
0.6765610704022544 -0.0462737892160010 0.0
1.3194516432963321 -0.0682485703867301 0.0
1.3263443914148618 -0.0726458215287110 0.0
1.1436735562226745 0.1192711612745226 0.0
0.3364743360570739 0.0311134400286597 0.0
1.4384872917318492 -0.0924284421696978 0.0
0.3017731768385803 0.1115332661036536 0.0
0.6913589073499508 0.1212329628381604 0.0
1.0604611204918533 0.0418535411906372 0.0
0.5383079938649781 -0.1144800380574369 0.0
1.1462667841731802 -0.3168953143532194 0.0
1.3919715554339498 -0.0734821013096545 0.0
1.6094236258710541 -0.0187811516227111 0.0
0.7314828549180152 0.1117254193403535 0.0
1.5210715630344740 -0.0621298438368448 0.0
0.9316899203134982 -0.0331255028781371 0.0
1.4004508510375264 -0.0625979748239762 0.0
0.9335028410512017 -0.0255447671263954 0.0
0.4889688699462903 0.2111274590852074 0.0
0.9083910670039732 -0.0553589284200242 0.0
1.0263977472079215 -0.0642768284457216 0.0
1.5683499511813155 -0.0459407740229243 0.0