# vtk DataFile Version 3.0
LucasCarvalhoTCC Results
ASCII

DATASET POLYDATA

POINTS 600 float
0.0 2.0 0.0
0.25 1.989125 0.0
0.5 1.958 0.0
0.75 1.908875 0.0
1.0 1.844 0.0
1.25 1.765625 0.0
1.5 1.676 0.0
1.75 1.577375 0.0
2.0 1.472 0.0
2.25 1.362125 0.0
2.5 1.25 0.0
2.75 1.137875 0.0
3.0 1.028 0.0
3.25 0.922625 0.0
3.5 0.8240000000000001 0.0
3.75 0.734375 0.0
4.0 0.6560000000000001 0.0
4.25 0.5911249999999999 0.0
4.5 0.542 0.0
4.75 0.510875 0.0
5.0 0.5 0.0
5.25 0.5036250000000004 0.0
5.5 0.5140000000000002 0.0
5.75 0.5303750000000003 0.0
6.0 0.5519999999999996 0.0
6.25 0.578125 0.0
6.5 0.6080000000000005 0.0
6.75 0.6408749999999999 0.0
7.0 0.6760000000000002 0.0
7.25 0.7126249999999992 0.0
7.5 0.75 0.0
7.75 0.7873750000000004 0.0
8.0 0.8239999999999994 0.0
8.25 0.8591250000000001 0.0
8.5 0.8919999999999999 0.0
8.75 0.921875 0.0
9.0 0.9479999999999991 0.0
9.25 0.9696250000000011 0.0
9.5 0.9859999999999984 0.0
9.75 0.9963750000000013 0.0
10.0 1.0 0.0
0.0 0.0 0.0
10.0 0.0 0.0
0.124999999999674 1.994562500000014 0.0
0.3749999999999947 1.973562500000001 0.0
0.6249999999999918 1.933437500000002 0.0
0.874999999999979 1.876437500000006 0.0
1.124999999999963 1.804812500000012 0.0
1.374999999999944 1.72081250000002 0.0
1.624999999999985 1.626687500000006 0.0
1.874999999999953 1.52468750000002 0.0
2.124999999999936 1.417062500000028 0.0
2.374999999999952 1.306062500000022 0.0
2.624999999999919 1.193937500000036 0.0
2.87499999999992 1.082937500000035 0.0
3.124999999999946 0.9753125000000229 0.0
3.374999999999948 0.8733125000000204 0.0
3.624999999999972 0.77918750000001 0.0
3.874999999999963 0.6951875000000118 0.0
4.124999999999968 0.6235625000000082 0.0
4.394409538298571 0.5627485257243309 0.0
4.583333333333322 0.5316250000000015 0.0
4.666666666666668 0.5212499999999999 0.0
4.833333333333334 0.50725 0.0
4.916666666666667 0.503625 0.0
5.083333333333334 0.5012083333333335 0.0
5.166666666666666 0.502416666666667 0.0
5.333333333333334 0.5070833333333337 0.0
5.416666666666667 0.510541666666667 0.0
5.583333333333334 0.5194583333333336 0.0
5.666666666666666 0.5249166666666669 0.0
5.833333333333338 0.5375833333333339 0.0
5.916666666666661 0.544791666666666 0.0
6.105781577147724 0.5630541748119369 0.0
6.375 0.5930625000000003 0.0
6.624999999999988 0.6244374999999988 0.0
6.874999999999994 0.6584374999999991 0.0
7.125 0.6943124999999997 0.0
7.375 0.7313124999999996 0.0
7.624999999999994 0.7686874999999992 0.0
7.875 0.8056874999999999 0.0
8.125 0.8415624999999998 0.0
8.374999999999991 0.8755624999999989 0.0
8.624999999999995 0.9069374999999993 0.0
8.874999999999995 0.9349374999999991 0.0
9.125 0.9588125000000001 0.0
9.375 0.9778124999999998 0.0
9.625 0.9911874999999999 0.0
9.875 0.9981875000000007 0.0
0.0 1.799999999999167 0.0
0.0 1.6 0.0
0.0 1.400000000001387 0.0
0.0 1.200000000002774 0.0
0.0 1.000000000004117 0.0
0.0 0.8000000000033287 0.0
0.0 0.6000000000024965 0.0
0.0 0.4000000000016644 0.0
0.0 0.200000000000832 0.0
0.199999999999856 0.0 0.0
0.3999999999996677 0.0 0.0
0.5999999999994683 0.0 0.0
0.7999999999993286 0.0 0.0
0.9999999999991888 0.0 0.0
1.199999999999033 0.0 0.0
1.399999999998576 0.0 0.0
1.599999999997992 0.0 0.0
1.799999999997408 0.0 0.0
1.999999999996825 0.0 0.0
2.199999999996241 0.0 0.0
2.399999999995657 0.0 0.0
2.599999999995073 0.0 0.0
2.79999999999449 0.0 0.0
2.999999999993906 0.0 0.0
3.199999999993322 0.0 0.0
3.399999999992738 0.0 0.0
3.599999999992154 0.0 0.0
3.799999999991571 0.0 0.0
3.999999999991022 0.0 0.0
4.199999999991187 0.0 0.0
4.399999999991491 0.0 0.0
4.599999999991795 0.0 0.0
4.799999999992099 0.0 0.0
4.999999999992403 0.0 0.0
5.199999999992706 0.0 0.0
5.39999999999301 0.0 0.0
5.599999999993313 0.0 0.0
5.799999999993618 0.0 0.0
5.999999999993922 0.0 0.0
6.199999999994227 0.0 0.0
6.39999999999453 0.0 0.0
6.599999999994833 0.0 0.0
6.799999999995138 0.0 0.0
6.999999999995442 0.0 0.0
7.199999999995747 0.0 0.0
7.39999999999605 0.0 0.0
7.599999999996353 0.0 0.0
7.799999999996658 0.0 0.0
7.999999999996962 0.0 0.0
8.199999999997265 0.0 0.0
8.399999999997569 0.0 0.0
8.599999999997873 0.0 0.0
8.799999999998176 0.0 0.0
8.99999999999848 0.0 0.0
9.199999999998786 0.0 0.0
9.399999999999089 0.0 0.0
9.599999999999392 0.0 0.0
9.799999999999697 0.0 0.0
10.0 0.1999999999995579 0.0
10.0 0.3999999999989749 0.0
10.0 0.5999999999989468 0.0
10.0 0.7999999999994734 0.0
0.913963423524136 0.9126937851647636 0.0
1.629657910441747 0.8286436141773268 0.0
2.300136613917738 0.6369890708869279 0.0
0.5989085226155619 1.38125543468559 0.0
1.274155622640533 1.242773398230304 0.0
2.860215383945273 0.5217401976756945 0.0
9.469653920408135 0.4910067017840992 0.0
8.984679546317787 0.4696119782494839 0.0
8.499397693277212 0.4463630640980716 0.0
3.270918412356206 0.4522692359356972 0.0
1.223039611612243 0.5146439900227544 0.0
2.024812732135938 1.00818256045515 0.0
0.5365376864627701 0.5434316309416508 0.0
8.114834335444021 0.4602948767329583 0.0
7.742261962994204 0.4117304941858466 0.0
0.9443382341364558 1.456061359265878 0.0
1.665275621558886 1.201744468407863 0.0
1.89566112584099 0.4397284596316843 0.0
3.691409759982064 0.3560936332572802 0.0
7.368457390036411 0.3792926046732459 0.0
0.5071184951703254 0.9340893429149442 0.0
0.3822273842356539 1.647625881691675 0.0
5.916285335387544 0.2564903116750689 0.0
5.628860531758535 0.2582323053999509 0.0
5.380471017960128 0.2502349014663197 0.0
5.139244585769944 0.2549145445969738 0.0
2.686085237972266 0.8031095648160084 0.0
4.507599040026292 0.263176944655695 0.0
6.983755234374982 0.3380000000001097 0.0
9.720925955181613 0.6635813325201156 0.0
1.288006195687152 0.8759679848503046 0.0
9.20556379558699 0.6923669083350594 0.0
2.319913492084225 0.9512500928262699 0.0
8.73203612228155 0.6151508464420534 0.0
4.868679481352366 0.2526598053940744 0.0
4.10358044398202 0.3012437332986487 0.0
6.602422946953217 0.3126221952225479 0.0
2.534693527909069 0.3583319619586092 0.0
6.193332317503376 0.2894654215336858 0.0
0.8804088217382579 0.3735513844182569 0.0
0.7663303172393539 1.679065267574722 0.0
3.081211528283084 0.6968015573146217 0.0
1.241762689885858 1.521465072418641 0.0
1.573472750763779 0.3374689934575129 0.0
1.475107933015155 1.403918544935278 0.0
0.8212739503602162 1.195790902469637 0.0
4.681049549092561 0.3558177014380842 0.0
9.439519900118443 0.7366884444350511 0.0
2.201393787062887 0.3261463175998884 0.0
2.015369189818184 0.7109460688851087 0.0
8.32727069655695 0.6360373328685593 0.0
8.961488632119996 0.7119124617705204 0.0
9.22773266034565 0.3109430611770705 0.0
0.3000513553073295 1.178778127105867 0.0
1.91985473842554 1.233084801189704 0.0
8.749827252515535 0.3049638092131281 0.0
3.50551132590258 0.5576614504134195 0.0
3.040500962406976 0.290446660105673 0.0
9.72097519930939 0.3037986529514364 0.0
0.3073166349239687 0.3249300260882615 0.0
0.2948185331392187 0.7229775107826154 0.0
1.46029425821417 1.06552904833304 0.0
0.8085718129253527 0.673531272847494 0.0
7.913326191751847 0.5738936378911789 0.0
8.295349499871781 0.2556682497524391 0.0
4.31359646688283 0.3665214152100782 0.0
7.542842082022704 0.5249918217576657 0.0
1.058357552227335 1.116692590939024 0.0
2.214297272750292 1.159898327391242 0.0
2.901187336648686 0.8282146771898153 0.0
3.933498145061447 0.4325241689837319 0.0
7.956006969037984 0.2667411694088205 0.0
7.172393179434975 0.4835114022190097 0.0
1.440243631802057 0.6689433452646625 0.0
3.458541882144431 0.2581755850286561 0.0
5.791617360065465 0.3978542524532168 0.0
5.981529865241493 0.3900667299390458 0.0
1.083462543944253 0.7203994120564634 0.0
1.78518471978951 1.008552691762234 0.0
2.77360122246243 0.2689852172070111 0.0
2.565134389978369 0.9928826788184764 0.0
2.543046005790158 0.6034091352176242 0.0
3.293038780485421 0.6769811703257343 0.0
6.790787388653942 0.4353933509634578 0.0
1.140204059461831 0.2538227257007896 0.0
0.6242104065654487 0.2738473600765566 0.0
6.393430278703709 0.3766405270445946 0.0
8.533059390324546 0.6950580701614406 0.0
0.9961263693263854 1.612128843772703 0.0
1.697598586607002 0.5781950992180334 0.0
8.087930458724863 0.6517815437732153 0.0
0.2748906317360928 1.770749713716887 0.0
0.5785110002099415 1.757022387413085 0.0
5.550004842562332 0.3852675728674634 0.0
4.948161884155141 0.3480305424737933 0.0
1.741244734175577 1.381979611033466 0.0
5.312408927381063 0.3621256994047111 0.0
0.2492139438157334 1.453132031680879 0.0
7.597720022451821 0.2370268512906596 0.0
9.471021754366422 0.2472916581956264 0.0
7.714083843672875 0.600212897672991 0.0
4.520815862079482 0.3946753115680038 0.0
2.47356661122767 0.8007389356831706 0.0
7.325494311403363 0.528948935030723 0.0
7.147005275585743 0.2709670165999667 0.0
3.758046446289313 0.5474783841545341 0.0
3.893717059615281 0.1664960777568404 0.0
2.152835534199412 0.8614028741175742 0.0
8.995993312441625 0.1933410497113667 0.0
1.077676137392001 1.368204555688504 0.0
0.2429906229817933 0.9816066505657851 0.0
0.6261765586985547 1.180540007244081 0.0
9.81151801018651 0.816223424030724 0.0
0.6725442903064565 0.8425384371773644 0.0
1.74584086891446 0.2617492458514414 0.0
0.7667820686164357 1.440842670056678 0.0
8.539133693395232 0.1910926418035274 0.0
5.129145653242096 0.3632579123815574 0.0
6.816538849831732 0.2013284992826486 0.0
2.108503954619862 0.5359795950847274 0.0
6.933669557130528 0.4980836483776163 0.0
3.071406705674529 0.4919421055852253 0.0
2.001240035874449 0.2292738462614773 0.0
4.782473531509697 0.4061213127162872 0.0
0.5734126310178208 1.536352720889636 0.0
9.796714529589472 0.4898048068674991 0.0
5.678359041645315 0.373719883316694 0.0
5.427661572827738 0.3646059266294788 0.0
2.075214597532947 1.226969224366912 0.0
3.251521478555126 0.2637671977660283 0.0
2.722180837291864 0.9710783334409533 0.0
9.333262390342384 0.8479609887828539 0.0
1.367251332770493 0.2041553944563636 0.0
1.870721433742522 0.7905989208842599 0.0
1.387906762913351 1.555741687747287 0.0
9.559918612869 0.8444052974080497 0.0
9.286795039366257 0.4698254290795815 0.0
1.507117480770146 1.225129516597721 0.0
9.077166852164718 0.7639907816872805 0.0
[...]
POINT_DATA 600

VECTORS Velocity float
0.0000000000000000 0.0000000000000000 0.0
0.0000000000000000 0.0000000000000000 0.0
0.0000000000000000 0.0000000000000000 0.0
0.0000000000000000 0.0000000000000000 0.0
0.0000000000000000 0.0000000000000000 0.0
0.0000000000000000 0.0000000000000000 0.0
0.0000000000000000 0.0000000000000000 0.0
0.0000000000000000 0.0000000000000000 0.0
0.0000000000000000 0.0000000000000000 0.0
0.0000000000000000 0.0000000000000000 0.0
0.0000000000000000 0.0000000000000000 0.0
0.0000000000000000 0.0000000000000000 0.0
0.0000000000000000 0.0000000000000000 0.0
0.0000000000000000 0.0000000000000000 0.0
0.0000000000000000 0.0000000000000000 0.0
0.0000000000000000 0.0000000000000000 0.0
0.0000000000000000 0.0000000000000000 0.0
0.0000000000000000 0.0000000000000000 0.0
0.0000000000000000 0.0000000000000000 0.0
0.0000000000000000 0.0000000000000000 0.0
0.0000000000000000 0.0000000000000000 0.0
0.0000000000000000 0.0000000000000000 0.0
0.0000000000000000 0.0000000000000000 0.0
0.0000000000000000 0.0000000000000000 0.0
0.0000000000000000 0.0000000000000000 0.0
0.0000000000000000 0.0000000000000000 0.0
0.0000000000000000 0.0000000000000000 0.0
0.0000000000000000 0.0000000000000000 0.0
0.0000000000000000 0.0000000000000000 0.0
0.0000000000000000 0.0000000000000000 0.0
0.0000000000000000 0.0000000000000000 0.0
0.0000000000000000 0.0000000000000000 0.0
0.0000000000000000 0.0000000000000000 0.0
0.0000000000000000 0.0000000000000000 0.0
0.0000000000000000 0.0000000000000000 0.0
0.0000000000000000 0.0000000000000000 0.0
0.0000000000000000 0.0000000000000000 0.0
0.0000000000000000 0.0000000000000000 0.0
0.0000000000000000 0.0000000000000000 0.0
0.0000000000000000 0.0000000000000000 0.0
0.0000000000000000 0.0000000000000000 0.0
0.0000000000000000 0.0000000000000000 0.0
0.8241942529995349 -0.1316641958671100 0.0
0.0000000000000000 0.0000000000000000 0.0
0.0000000000000000 0.0000000000000000 0.0
0.0000000000000000 0.0000000000000000 0.0
0.0000000000000000 0.0000000000000000 0.0
0.0000000000000000 0.0000000000000000 0.0
0.0000000000000000 0.0000000000000000 0.0
0.0000000000000000 0.0000000000000000 0.0
0.0000000000000000 0.0000000000000000 0.0
0.0000000000000000 0.0000000000000000 0.0
0.0000000000000000 0.0000000000000000 0.0
0.0000000000000000 0.0000000000000000 0.0
0.0000000000000000 0.0000000000000000 0.0
0.0000000000000000 0.0000000000000000 0.0
0.0000000000000000 0.0000000000000000 0.0
0.0000000000000000 0.0000000000000000 0.0
0.0000000000000000 0.0000000000000000 0.0
0.0000000000000000 0.0000000000000000 0.0
0.0000000000000000 0.0000000000000000 0.0
0.0000000000000000 0.0000000000000000 0.0
0.0000000000000000 0.0000000000000000 0.0
0.0000000000000000 0.0000000000000000 0.0
0.0000000000000000 0.0000000000000000 0.0
0.0000000000000000 0.0000000000000000 0.0
0.0000000000000000 0.0000000000000000 0.0
0.0000000000000000 0.0000000000000000 0.0
0.0000000000000000 0.0000000000000000 0.0
0.0000000000000000 0.0000000000000000 0.0
0.0000000000000000 0.0000000000000000 0.0
0.0000000000000000 0.0000000000000000 0.0
0.0000000000000000 0.0000000000000000 0.0
0.0000000000000000 0.0000000000000000 0.0
0.0000000000000000 0.0000000000000000 0.0
0.0000000000000000 0.0000000000000000 0.0
0.0000000000000000 0.0000000000000000 0.0
0.0000000000000000 0.0000000000000000 0.0
0.0000000000000000 0.0000000000000000 0.0
0.0000000000000000 0.0000000000000000 0.0
0.0000000000000000 0.0000000000000000 0.0
0.0000000000000000 0.0000000000000000 0.0
0.0000000000000000 0.0000000000000000 0.0
0.0000000000000000 0.0000000000000000 0.0
0.0000000000000000 0.0000000000000000 0.0
0.0000000000000000 0.0000000000000000 0.0
0.0000000000000000 0.0000000000000000 0.0
0.0000000000000000 0.0000000000000000 0.0
0.0000000000000000 0.0000000000000000 0.0
1.0000000000000000 0.0000000000000000 0.0
1.0000000000000000 0.0000000000000000 0.0
1.0000000000000000 0.0000000000000000 0.0
1.0000000000000000 0.0000000000000000 0.0
1.0000000000000000 0.0000000000000000 0.0
1.0000000000000000 0.0000000000000000 0.0
1.0000000000000000 0.0000000000000000 0.0
1.0000000000000000 0.0000000000000000 0.0
1.0000000000000000 0.0000000000000000 0.0
0.0000000000000000 0.0000000000000000 0.0
0.0000000000000000 0.0000000000000000 0.0
0.0000000000000000 0.0000000000000000 0.0
0.0000000000000000 0.0000000000000000 0.0
0.0000000000000000 0.0000000000000000 0.0
0.0000000000000000 0.0000000000000000 0.0
0.0000000000000000 0.0000000000000000 0.0
0.0000000000000000 0.0000000000000000 0.0
0.0000000000000000 0.0000000000000000 0.0
0.0000000000000000 0.0000000000000000 0.0
0.0000000000000000 0.0000000000000000 0.0
0.0000000000000000 0.0000000000000000 0.0
0.0000000000000000 0.0000000000000000 0.0
0.0000000000000000 0.0000000000000000 0.0
0.0000000000000000 0.0000000000000000 0.0
0.0000000000000000 0.0000000000000000 0.0
0.0000000000000000 0.0000000000000000 0.0
0.0000000000000000 0.0000000000000000 0.0
0.0000000000000000 0.0000000000000000 0.0
0.0000000000000000 0.0000000000000000 0.0
0.0000000000000000 0.0000000000000000 0.0
0.0000000000000000 0.0000000000000000 0.0
0.0000000000000000 0.0000000000000000 0.0
0.0000000000000000 0.0000000000000000 0.0
0.0000000000000000 0.0000000000000000 0.0
0.0000000000000000 0.0000000000000000 0.0
0.0000000000000000 0.0000000000000000 0.0
0.0000000000000000 0.0000000000000000 0.0
0.0000000000000000 0.0000000000000000 0.0
0.0000000000000000 0.0000000000000000 0.0
0.0000000000000000 0.0000000000000000 0.0
0.0000000000000000 0.0000000000000000 0.0
0.0000000000000000 0.0000000000000000 0.0
0.0000000000000000 0.0000000000000000 0.0
0.0000000000000000 0.0000000000000000 0.0
0.0000000000000000 0.0000000000000000 0.0
0.0000000000000000 0.0000000000000000 0.0
0.0000000000000000 0.0000000000000000 0.0
0.0000000000000000 0.0000000000000000 0.0
0.0000000000000000 0.0000000000000000 0.0
0.0000000000000000 0.0000000000000000 0.0
0.0000000000000000 0.0000000000000000 0.0
0.0000000000000000 0.0000000000000000 0.0
0.0000000000000000 0.0000000000000000 0.0
0.0000000000000000 0.0000000000000000 0.0
0.0000000000000000 0.0000000000000000 0.0
0.0000000000000000 0.0000000000000000 0.0
0.0000000000000000 0.0000000000000000 0.0
0.0000000000000000 0.0000000000000000 0.0
1.0711304351875679 -0.4643188194485913 0.0
0.9659605887381487 -0.1987374886796149 0.0
0.9840988531991121 -0.0316305743407290 0.0
1.0704119003862087 0.3852718142955523 0.0
1.4263347580190517 0.0082120234189317 0.0
1.5109702780206045 -0.1048700963747371 0.0
1.4787485978773804 -0.1945470743491878 0.0
1.2340756928847960 -0.1331246746356189 0.0
1.3388858630845111 -0.0692944653025508 0.0
1.5344204646165898 -0.1175583398964703 0.0
1.5906452157599211 -0.0306062465453612 0.0
1.5334529400052048 0.0208257264376355 0.0
1.5837502257598002 0.0988880435084435 0.0
1.5108819188135887 -0.1189218488635738 0.0
1.1637176343808795 0.0053677326307093 0.0
1.3695773376199811 -0.0945244867938223 0.0
1.2327933946866494 0.2597999749793503 0.0
1.5844810478653033 0.0726279133662320 0.0
1.5632686662047350 0.0076123654479286 0.0
1.1241437313743339 -0.0387801736411520 0.0
1.2460596724823243 -0.0113175060512919 0.0
1.1316868222824581 -0.0802981319122641 0.0
1.5269996167854398 -0.0568829233905783 0.0
1.5803980924878223 0.0552978274764398 0.0
1.2413692157727401 0.1015534182010929 0.0
1.1168903726094070 -0.2626494672793411 0.0
1.4955274091813271 0.0143936737277864 0.0
1.4954649031729759 -0.0176942156529306 0.0
1.5251341278769108 0.0356345953563291 0.0
1.5470948432748017 0.0132607889687307 0.0
1.3233454281697281 -0.1122980957872515 0.0
1.4872485692987076 0.0099380196681267 0.0
1.6540763444967850 0.0258892764089403 0.0
1.3617849461458962 0.1306307607369700 0.0
1.5090034371157295 -0.0481439883997939 0.0
1.3847021313902517 -0.0479716678467040 0.0
1.3419924407774850 -0.1365523909839856 0.0
1.5119775039302763 0.0933314947981062 0.0
1.5117655132650332 0.0024087911265606 0.0
1.6249112802288819 -0.1066500954154840 0.0
1.6830009258513452 -0.0380697699276090 0.0
1.1990409935410720 -0.1071876613935255 0.0
1.5893022261282175 -0.0203212820881375 0.0
0.9428011939287559 0.0718788632532725 0.0
0.8196722957378786 0.0404127622891574 0.0
1.3816676928315466 -0.0435727974553964 0.0
0.8376831444077187 0.0506194409082439 0.0
0.8241202541233482 -0.0555042255734218 0.0
0.9559584285686306 0.0649069345107447 0.0
1.3625568154498271 -0.0609041820020715 0.0
1.8005088790450330 -0.1359287215616496 0.0
1.2813565012653467 0.0006238274269463 0.0
0.9678623087892169 -0.0738368852118140 0.0
1.4826675308553730 -0.1272656597790937 0.0
1.3648937083837382 0.0419654882861727 0.0
1.3297737554961933 0.0010266186169030 0.0
1.2144732289310303 -0.0202720946219078 0.0
1.0937521782224062 -0.0947022669064222 0.0
1.0389480516422203 0.0369019566963275 0.0
1.2472791693049943 0.0251306279774011 0.0
1.4513032953107714 -0.0618507803601653 0.0
1.2282357823026155 -0.0304955657708790 0.0
1.2016932617630509 -0.2102048764984494 0.0
1.1196970147200087 0.3512850979175826 0.0
1.1054185984253337 0.2159823064950857 0.0
1.4850512346360201 -0.0828356971488516 0.0
1.3173328320419995 0.1226981194945173 0.0
1.3992430040271371 0.0530066302080896 0.0
1.2320736557844467 0.0226579085612539 0.0
1.7382811333075772 0.0681722248193141 0.0
1.4847829070173488 -0.0107155958640944 0.0
1.4403559630147229 -0.0593401070672325 0.0
0.8958167351407926 0.0306401553688867 0.0
1.0931744238199015 -0.0101782036721705 0.0
1.6053828044549989 -0.1344902561076235 0.0
1.3120732575998353 0.0488506412268338 0.0
1.4483935277633646 0.0723060119454099 0.0
1.4154543600318854 -0.0664911053867508 0.0
1.2406126534041162 -0.0433775539100542 0.0
1.5395147425900295 -0.0425854005175754 0.0
1.6095531676243700 0.0403177214278491 0.0
1.4204735527384547 0.0274640613709740 0.0
1.4496420656259084 -0.0926934346890237 0.0
1.0752899314896038 -0.0966160442365174 0.0
0.9650712504474267 0.0170189399630393 0.0
1.5263722612420236 -0.1869839026522354 0.0
1.2376282352938128 -0.0960750676821956 0.0
1.5845224498534807 0.0135191921396679 0.0
0.5479361825402240 0.0309177439599384 0.0
0.8390456525076313 0.1096034901061340 0.0
1.6625998873998042 0.0133733403456143 0.0
1.2486018163653265 -0.0060675726809129 0.0
0.8212249570620306 0.0443706920635199 0.0
1.3293163778103751 -0.1160143147180872 0.0
1.1905604513139143 0.0056101582351874 0.0
1.0987502104702143 -0.2865391198827030 0.0
0.7856978271827385 0.0371256096506637 0.0
1.5949062943948251 0.0114997578920247 0.0
1.6646781864655877 -0.0091690245268953 0.0
0.8034974395981938 0.1187608939290141 0.0
1.6080808048535058 0.0561333420462018 0.0
1.0876571040866718 -0.2435215854536240 0.0
1.2205723122694303 0.0321137737965885 0.0
1.0946103844866355 -0.0425936238473864 0.0
1.2306282008467819 0.0138264160230392 0.0
1.6700439766061375 -0.0216714333119441 0.0
1.4588343020864742 -0.2147730615193733 0.0
1.4487324957260193 0.0460163338675678 0.0
1.4479500855462539 0.0892044173956030 0.0
1.3495765220784257 -0.0521295747832543 0.0
0.7451843741338290 -0.0909574144594764 0.0
1.4742397468575434 -0.1588787346030381 0.0
0.6528928069727334 -0.0044769918494479 0.0
1.2195390987580164 -0.0480241331883676 0.0
1.0615686705506790 0.0122478091131663 0.0
1.2973033338132640 -0.0421608520644718 0.0
1.1685590574101343 0.2322757189181050 0.0
1.3305601507964333 0.1097482837428063 0.0
0.6756864363507883 -0.0076091333477047 0.0
1.1972330188202986 -0.0826961886969396 0.0
0.7054010150364713 0.0047700590832385 0.0
1.6564267087531350 0.0019193469343766 0.0
1.0150844654245514 0.0772661965227254 0.0
1.3507935439209926 -0.1465607035156501 0.0
1.1382113829755804 0.0015347612716560 0.0
1.4881195487874166 -0.1416063058785141 0.0
0.5387300369574471 -0.0471301176415204 0.0
1.1807339178169802 -0.0784196444779557 0.0
1.1595522926965576 -0.1354534064711369 0.0
1.2868964983881355 -0.1048387233740957 0.0
1.6374725245403154 -0.0138492363512988 0.0
1.6049039593954921 0.0503950147844658 0.0
0.8698852459239453 0.0902617578925261 0.0
1.2406678394121251 -0.0443646174732535 0.0
0.7407147749828613 0.1155527639319769 0.0
0.5926891595674945 -0.0026196521014813 0.0
0.4033701406995854 0.0210560522431372 0.0
1.4918300849771622 -0.1174479300774530 0.0
0.5416182316764949 0.1838153078954906 0.0
0.7006979430204009 -0.0056566231483145 0.0
1.5624985898066381 0.0253650201972689 0.0
1.2830033264739125 -0.0485566371626644 0.0
1.2106103176545040 -0.0406212162123836 0.0
1.5678233077863930 0.0698239346336148 0.0
1.4756261136315698 -0.0661406412246721 0.0
1.5716901811480464 0.0288305632345208 0.0
1.1845311534228888 0.0548015133388391 0.0
1.1082107609470242 -0.2655173495304910 0.0
1.2356145016848508 0.1938604495202201 0.0
1.1065716393295539 0.2454337982736777 0.0
1.0737753524952112 -0.0461726579669128 0.0
1.1845043444269057 0.0250235616267260 0.0
0.9319497274840063 0.0425201433711462 0.0
0.5747735945761284 0.1656012571945862 0.0
0.9917871903063894 -0.0116468164568082 0.0
1.4811996482977834 -0.0424004340178537 0.0
0.7658217909416412 0.0675635571076244 0.0
1.1726846082248137 0.0704933126057864 0.0
1.5227614701285395 -0.0791074834604047 0.0
0.8728661256581617 -0.0260298652140692 0.0
1.2624635418957337 0.0299497433543945 0.0
1.5257767044195472 0.0518574406209505 0.0
1.1806399779938190 -0.2167881506585825 0.0
1.3153503604622168 -0.1165931266705861 0.0
0.4985705274907832 0.1621312987908217 0.0
0.4965423887899131 0.1294292280003650 0.0
0.8396546681534341 -0.0137431487162427 0.0
1.4764154561557929 -0.0802384811451876 0.0
1.5064575816518049 -0.0970797792208715 0.0
0.5334019121660256 0.1859538050616886 0.0
0.6769889800363598 -0.0645821062408698 0.0
1.1214127591903946 0.0213029781497430 0.0
1.4723481921092074 -0.1221630262645567 0.0
0.9863535693186065 -0.0134573881052902 0.0
1.3677358727241880 0.0092102617686241 0.0
1.4220364118879216 -0.1124169565266261 0.0
0.9660103946250997 0.0081875845594448 0.0
0.8755633796281778 0.0703376666483203 0.0
1.3265464818325252 -0.0012556916538291 0.0
0.7682747828674494 -0.0259551936701941 0.0
1.5634160960255981 -0.0255107952619305 0.0
0.7657577570477870 0.0220209562026359 0.0
0.7722097501362476 -0.0298830049656786 0.0
1.2969771747877084 -0.0812771063141813 0.0
1.4277019137827274 -0.0134962707406817 0.0
0.9895202050029760 0.0116914276865953 0.0
0.5781830621081758 0.2039423958583798 0.0
0.9124865700571666 -0.0048141206652239 0.0
1.1253647232639095 -0.0588340511709400 0.0
0.8114296225719317 0.1004906798593132 0.0
1.1545263551911615 0.1628771211346859 0.0
1.0524327034722007 0.0033639994345003 0.0
0.6813557253395225 0.0184767714612212 0.0
1.5280693667800844 -0.0212206742635286 0.0
0.9040970566613408 -0.0122233757450284 0.0
1.5511987465976103 -0.0273617412082753 0.0
0.4008168871047886 -0.0285528094443000 0.0
1.4833083251298911 -0.1735434862728749 0.0
1.6050734022896185 -0.0120700089341299 0.0
0.5257777381142180 0.1193823672697420 0.0
0.7789410553694546 -0.0246507078856642 0.0
1.5848628298638179 0.0676905925524034 0.0
0.9339883526092120 0.0964904687136843 0.0
1.5622992074986080 0.0588123624936393 0.0
0.9457460681455601 0.0061486750616445 0.0
0.7996631160956090 -0.0601189148048144 0.0
0.6663611875555840 -0.0406762670560694 0.0
1.0209142928932626 -0.0256762390820448 0.0
1.0041666307393262 0.0297836820017145 0.0
1.4548056879751092 0.0139587073700942 0.0
0.5587703414380945 0.0374223121206421 0.0
0.8831615352986475 -0.0616607330580453 0.0
0.8522956919931878 0.0503695366695712 0.0
1.4230312801548513 0.0808283927234422 0.0
0.8003091575520100 -0.2003187849151406 0.0
0.8302265051106864 -0.0258134096681451 0.0
0.5227773791748842 -0.0487173373732992 0.0
1.0110963370299981 0.0409044955895237 0.0
0.7017883665701521 0.2057677631179449 0.0
0.9034564457013056 0.0438152424200877 0.0
1.2700136216347440 -0.1078848329012913 0.0
0.7617265760176133 -0.0189506954523334 0.0
0.9010475298260072 -0.0015386203304847 0.0
0.9506354819031466 -0.0007144841059190 0.0
0.7927007004073027 -0.0314783042771909 0.0
0.7698343950050694 -0.0441424543033022 0.0
1.4956414106523956 0.0253090166157760 0.0
0.8008879491436431 -0.0311799366776561 0.0
1.0390535442182005 -0.0971267975526489 0.0
0.8394100778938440 0.0547908550828574 0.0
1.2888123097754411 -0.0212938540492688 0.0
0.6317098113177924 -0.0200970603622188 0.0
0.3634248262415323 0.0042773752573164 0.0
1.2009020895836569 -0.1281103255340858 0.0
0.8370896049014703 0.1031908450126035 0.0
0.7951675000699677 -0.0163619997922573 0.0
0.9609452880602369 0.0557693759617292 0.0
1.4104388630044511 -0.0358110968586257 0.0
0.6543101279209077 -0.0214731858289510 0.0
1.2171896670701778 0.1878935964883635 0.0
1.5040669630872441 0.0074441124312072 0.0
0.7108405561361628 -0.0127803019206360 0.0
1.1435130955447239 0.0043179893994717 0.0
1.2859781994812365 -0.0802081323315858 0.0
1.0540273158936158 -0.0606559702408071 0.0
1.4857512358401026 -0.1346003012654900 0.0
0.4462765885777448 0.2222739120504822 0.0
1.7304264085263987 0.0213608848952023 0.0
1.4065612121069559 0.0464984842721236 0.0
0.5540362599341561 0.0509359920000209 0.0
1.4946577537295587 -0.1648434931347760 0.0
1.5187855920855367 -0.0867852734878157 0.0
0.6318337793283112 -0.0078947100330409 0.0
1.0271124651811607 -0.0242628718385240 0.0
0.6730537517097375 -0.0388215496822424 0.0
0.9512598522153806 -0.0773474907872567 0.0
0.7842201423156432 -0.0530662506353108 0.0
0.3789489371513971 0.2224013020931346 0.0
1.1068124307818537 0.2677472418905062 0.0
1.5950649925166924 0.0092672533406329 0.0
0.5764044867093041 0.2234704955347036 0.0
1.5778603830533406 -0.0639053870114782 0.0
1.7461005600690296 0.0987923607266624 0.0
0.5290920562279660 0.2217742951959499 0.0
1.4842249770379465 0.0479103180192436 0.0
1.4154510141002654 -0.1353102201189660 0.0
0.9229015674651029 0.2516891683235075 0.0
1.2861519919073099 -0.0211862213022298 0.0
1.3170779622704207 0.0228468846604260 0.0
0.7802990974351081 0.0898261359986440 0.0
1.3373833611598025 -0.1179913602804927 0.0
0.6956129685732433 -0.0565908293934424 0.0
0.5595707324692557 0.2078158591123589 0.0
0.3897974331805786 0.0182180030046447 0.0
1.1867827467187746 -0.0106584771181678 0.0
0.8831504109211157 -0.2765687662891103 0.0
1.4228711634950895 0.1020298453626422 0.0
1.2976948556558157 -0.1142937336255694 0.0
0.5593110126561363 -0.0119556295074053 0.0
0.5792523486989648 0.0492844036802889 0.0
0.6990470028054520 0.0180840207067699 0.0
1.1869395848758744 -0.0107105773738048 0.0
1.2011985351939787 0.3224033596710653 0.0
0.5608083735816313 -0.0322802789909020 0.0
1.1067324631218831 -0.0747707151762076 0.0
0.5923081332791877 0.0403819287683781 0.0
1.5694280229957971 0.0406143539610429 0.0
0.4471654019033755 0.2564877365156015 0.0
0.7386942224746784 -0.1226549267741018 0.0
1.5423739522433633 -0.0452328060363003 0.0
1.2510031766519005 0.0396431235603537 0.0
1.5437976208416511 -0.1432582027974046 0.0
0.6831188805540945 0.0060017936143509 0.0
0.8722804304538083 -0.0342671449024951 0.0
1.4599082424813838 -0.1034571026467675 0.0
1.4598990869859800 -0.1003051674070649 0.0
1.0293016654116822 0.0673982130938906 0.0
1.4509448117958921 0.0381455164328390 0.0
1.3563718435801775 -0.0582878578042745 0.0
1.2871782630985036 0.1787765700273653 0.0
0.7852718044626321 -0.0066751650710281 0.0
0.7446864133527291 -0.0212837468964922 0.0
0.6771093346356534 -0.0462782268108223 0.0
1.3232301237247301 -0.0623364803144309 0.0
1.3365114964500624 -0.0982749327998505 0.0
1.1658787885535586 0.1249860598535811 0.0
0.3181844716971328 0.0330548182051221 0.0
1.4392584732707445 -0.0911999032783316 0.0
0.2875063420139759 0.1107803921356169 0.0
0.6920757967494721 0.1210661790123486 0.0
1.0266393586216469 0.0588216566356049 0.0
0.5381996944520807 -0.1143857201481530 0.0
1.1455494336037924 -0.3186604948634917 0.0
1.4244417009677295 -0.0717468870044083 0.0
1.6093548284845474 -0.0189001795823963 0.0
0.7315846030614773 0.1116820871264085 0.0
1.5204666143661913 -0.0626476003267385 0.0
0.9325164727762215 -0.0331097483650054 0.0
1.4278947756566207 -0.0661336777295874 0.0
0.9340760306504814 -0.0254912575300047 0.0
0.4716329098735886 0.2197914689059353 0.0
0.9082648846861803 -0.0555408071637363 0.0
1.0262760128386601 -0.0642694053042247 0.0
1.5686566737362855 -0.0453451315676140 0.0