# vtk DataFile Version 3.0
LucasCarvalhoTCC Results
ASCII

DATASET POLYDATA
FIELD FieldData 1
TIME 1 1 double
1.2000000000000002

POINTS 600 float
0.0 2.0 0.0
0.25 1.989125 0.0
0.5 1.958 0.0
0.75 1.908875 0.0
1.0 1.844 0.0
1.25 1.765625 0.0
1.5 1.676 0.0
1.75 1.577375 0.0
2.0 1.472 0.0
2.25 1.362125 0.0
2.5 1.25 0.0
2.75 1.137875 0.0
3.0 1.028 0.0
3.25 0.922625 0.0
3.5 0.8240000000000001 0.0
3.75 0.734375 0.0
4.0 0.6560000000000001 0.0
4.25 0.5911249999999999 0.0
4.5 0.542 0.0
4.75 0.510875 0.0
5.0 0.5 0.0
5.25 0.5036250000000004 0.0
5.5 0.5140000000000002 0.0
5.75 0.5303750000000003 0.0
6.0 0.5519999999999996 0.0
6.25 0.578125 0.0
6.5 0.6080000000000005 0.0
6.75 0.6408749999999999 0.0
7.0 0.6760000000000002 0.0
7.25 0.7126249999999992 0.0
7.5 0.75 0.0
7.75 0.7873750000000004 0.0
8.0 0.8239999999999994 0.0
8.25 0.8591250000000001 0.0
8.5 0.8919999999999999 0.0
8.75 0.921875 0.0
9.0 0.9479999999999991 0.0
9.25 0.9696250000000011 0.0
9.5 0.9859999999999984 0.0
9.75 0.9963750000000013 0.0
10.0 1.0 0.0
0.0 0.0 0.0
10.0 0.0 0.0
0.124999999999674 1.994562500000014 0.0
0.3749999999999947 1.973562500000001 0.0
0.6249999999999918 1.933437500000002 0.0
0.874999999999979 1.876437500000006 0.0
1.124999999999963 1.804812500000012 0.0
1.374999999999944 1.72081250000002 0.0
1.624999999999985 1.626687500000006 0.0
1.874999999999953 1.52468750000002 0.0
2.124999999999936 1.417062500000028 0.0
2.374999999999952 1.306062500000022 0.0
2.624999999999919 1.193937500000036 0.0
2.87499999999992 1.082937500000035 0.0
3.124999999999946 0.9753125000000229 0.0
3.374999999999948 0.8733125000000204 0.0
3.624999999999972 0.77918750000001 0.0
3.874999999999963 0.6951875000000118 0.0
4.124999999999968 0.6235625000000082 0.0
4.394409538298571 0.5627485257243309 0.0
4.583333333333322 0.5316250000000015 0.0
4.666666666666668 0.5212499999999999 0.0
4.833333333333334 0.50725 0.0
4.916666666666667 0.503625 0.0
5.083333333333334 0.5012083333333335 0.0
5.166666666666666 0.502416666666667 0.0
5.333333333333334 0.5070833333333337 0.0
5.416666666666667 0.510541666666667 0.0
5.583333333333334 0.5194583333333336 0.0
5.666666666666666 0.5249166666666669 0.0
5.833333333333338 0.5375833333333339 0.0
5.916666666666661 0.544791666666666 0.0
6.105781577147724 0.5630541748119369 0.0
6.375 0.5930625000000003 0.0
6.624999999999988 0.6244374999999988 0.0
6.874999999999994 0.6584374999999991 0.0
7.125 0.6943124999999997 0.0
7.375 0.7313124999999996 0.0
7.624999999999994 0.7686874999999992 0.0
7.875 0.8056874999999999 0.0
8.125 0.8415624999999998 0.0
8.374999999999991 0.8755624999999989 0.0
8.624999999999995 0.9069374999999993 0.0
8.874999999999995 0.9349374999999991 0.0
9.125 0.9588125000000001 0.0
9.375 0.9778124999999998 0.0
9.625 0.9911874999999999 0.0
9.875 0.9981875000000007 0.0
0.0 1.799999999999167 0.0
0.0 1.6 0.0
0.0 1.400000000001387 0.0
0.0 1.200000000002774 0.0
0.0 1.000000000004117 0.0
0.0 0.8000000000033287 0.0
0.0 0.6000000000024965 0.0
0.0 0.4000000000016644 0.0
0.0 0.200000000000832 0.0
0.199999999999856 0.0 0.0
0.3999999999996677 0.0 0.0
0.5999999999994683 0.0 0.0
0.7999999999993286 0.0 0.0
0.9999999999991888 0.0 0.0
1.199999999999033 0.0 0.0
1.399999999998576 0.0 0.0
1.599999999997992 0.0 0.0
1.799999999997408 0.0 0.0
1.999999999996825 0.0 0.0
2.199999999996241 0.0 0.0
2.399999999995657 0.0 0.0
2.599999999995073 0.0 0.0
2.79999999999449 0.0 0.0
2.999999999993906 0.0 0.0
3.199999999993322 0.0 0.0
3.399999999992738 0.0 0.0
3.599999999992154 0.0 0.0
3.799999999991571 0.0 0.0
3.999999999991022 0.0 0.0
4.199999999991187 0.0 0.0
4.399999999991491 0.0 0.0
4.599999999991795 0.0 0.0
4.799999999992099 0.0 0.0
4.999999999992403 0.0 0.0
5.199999999992706 0.0 0.0
5.39999999999301 0.0 0.0
5.599999999993313 0.0 0.0
5.799999999993618 0.0 0.0
5.999999999993922 0.0 0.0
6.199999999994227 0.0 0.0
6.39999999999453 0.0 0.0
6.599999999994833 0.0 0.0
6.799999999995138 0.0 0.0
6.999999999995442 0.0 0.0
7.199999999995747 0.0 0.0
7.39999999999605 0.0 0.0
7.599999999996353 0.0 0.0
7.799999999996658 0.0 0.0
7.999999999996962 0.0 0.0
8.199999999997265 0.0 0.0
8.399999999997569 0.0 0.0
8.599999999997873 0.0 0.0
8.799999999998176 0.0 0.0
8.99999999999848 0.0 0.0
9.199999999998786 0.0 0.0
9.399999999999089 0.0 0.0
9.599999999999392 0.0 0.0
9.799999999999697 0.0 0.0
10.0 0.1999999999995579 0.0
10.0 0.3999999999989749 0.0
10.0 0.5999999999989468 0.0
10.0 0.7999999999994734 0.0
0.913963423524136 0.9126937851647636 0.0
1.629657910441747 0.8286436141773268 0.0
2.300136613917738 0.6369890708869279 0.0
0.5989085226155619 1.38125543468559 0.0
1.274155622640533 1.242773398230304 0.0
2.860215383945273 0.5217401976756945 0.0
9.469653920408135 0.4910067017840992 0.0
8.984679546317787 0.4696119782494839 0.0
8.499397693277212 0.4463630640980716 0.0
3.270918412356206 0.4522692359356972 0.0
1.223039611612243 0.5146439900227544 0.0
2.024812732135938 1.00818256045515 0.0
0.5365376864627701 0.5434316309416508 0.0
8.114834335444021 0.4602948767329583 0.0
7.742261962994204 0.4117304941858466 0.0
0.9443382341364558 1.456061359265878 0.0
1.665275621558886 1.201744468407863 0.0
1.89566112584099 0.4397284596316843 0.0
3.691409759982064 0.3560936332572802 0.0
7.368457390036411 0.3792926046732459 0.0
0.5071184951703254 0.9340893429149442 0.0
0.3822273842356539 1.647625881691675 0.0
5.916285335387544 0.2564903116750689 0.0
5.628860531758535 0.2582323053999509 0.0
5.380471017960128 0.2502349014663197 0.0
5.139244585769944 0.2549145445969738 0.0
2.686085237972266 0.8031095648160084 0.0
4.507599040026292 0.263176944655695 0.0
6.983755234374982 0.3380000000001097 0.0
9.720925955181613 0.6635813325201156 0.0
1.288006195687152 0.8759679848503046 0.0
9.20556379558699 0.6923669083350594 0.0
2.319913492084225 0.9512500928262699 0.0
8.73203612228155 0.6151508464420534 0.0
4.868679481352366 0.2526598053940744 0.0
4.10358044398202 0.3012437332986487 0.0
6.602422946953217 0.3126221952225479 0.0
2.534693527909069 0.3583319619586092 0.0
6.193332317503376 0.2894654215336858 0.0
0.8804088217382579 0.3735513844182569 0.0
0.7663303172393539 1.679065267574722 0.0
3.081211528283084 0.6968015573146217 0.0
1.241762689885858 1.521465072418641 0.0
1.573472750763779 0.3374689934575129 0.0
1.475107933015155 1.403918544935278 0.0
0.8212739503602162 1.195790902469637 0.0
4.681049549092561 0.3558177014380842 0.0
9.439519900118443 0.7366884444350511 0.0
2.201393787062887 0.3261463175998884 0.0
2.015369189818184 0.7109460688851087 0.0
8.32727069655695 0.6360373328685593 0.0
8.961488632119996 0.7119124617705204 0.0
9.22773266034565 0.3109430611770705 0.0
0.3000513553073295 1.178778127105867 0.0
1.91985473842554 1.233084801189704 0.0
8.749827252515535 0.3049638092131281 0.0
3.50551132590258 0.5576614504134195 0.0
3.040500962406976 0.290446660105673 0.0
9.72097519930939 0.3037986529514364 0.0
0.3073166349239687 0.3249300260882615 0.0
0.2948185331392187 0.7229775107826154 0.0
1.46029425821417 1.06552904833304 0.0
0.8085718129253527 0.673531272847494 0.0
7.913326191751847 0.5738936378911789 0.0
8.295349499871781 0.2556682497524391 0.0
4.31359646688283 0.3665214152100782 0.0
7.542842082022704 0.5249918217576657 0.0
1.058357552227335 1.116692590939024 0.0
2.214297272750292 1.159898327391242 0.0
2.901187336648686 0.8282146771898153 0.0
3.933498145061447 0.4325241689837319 0.0
7.956006969037984 0.2667411694088205 0.0
7.172393179434975 0.4835114022190097 0.0
1.440243631802057 0.6689433452646625 0.0
3.458541882144431 0.2581755850286561 0.0
5.791617360065465 0.3978542524532168 0.0
5.981529865241493 0.3900667299390458 0.0
1.083462543944253 0.7203994120564634 0.0
1.78518471978951 1.008552691762234 0.0
2.77360122246243 0.2689852172070111 0.0
2.565134389978369 0.9928826788184764 0.0
2.543046005790158 0.6034091352176242 0.0
3.293038780485421 0.6769811703257343 0.0
6.790787388653942 0.4353933509634578 0.0
1.140204059461831 0.2538227257007896 0.0
0.6242104065654487 0.2738473600765566 0.0
6.393430278703709 0.3766405270445946 0.0
8.533059390324546 0.6950580701614406 0.0
0.9961263693263854 1.612128843772703 0.0
1.697598586607002 0.5781950992180334 0.0
8.087930458724863 0.6517815437732153 0.0
0.2748906317360928 1.770749713716887 0.0
0.5785110002099415 1.757022387413085 0.0
5.550004842562332 0.3852675728674634 0.0
4.948161884155141 0.3480305424737933 0.0
1.741244734175577 1.381979611033466 0.0
5.312408927381063 0.3621256994047111 0.0
0.2492139438157334 1.453132031680879 0.0
7.597720022451821 0.2370268512906596 0.0
9.471021754366422 0.2472916581956264 0.0
7.714083843672875 0.600212897672991 0.0
4.520815862079482 0.3946753115680038 0.0
2.47356661122767 0.8007389356831706 0.0
7.325494311403363 0.528948935030723 0.0
7.147005275585743 0.2709670165999667 0.0
3.758046446289313 0.5474783841545341 0.0
3.893717059615281 0.1664960777568404 0.0
2.152835534199412 0.8614028741175742 0.0
8.995993312441625 0.1933410497113667 0.0
1.077676137392001 1.368204555688504 0.0
0.2429906229817933 0.9816066505657851 0.0
0.6261765586985547 1.180540007244081 0.0
9.81151801018651 0.816223424030724 0.0
0.6725442903064565 0.8425384371773644 0.0
1.74584086891446 0.2617492458514414 0.0
0.7667820686164357 1.440842670056678 0.0
8.539133693395232 0.1910926418035274 0.0
5.129145653242096 0.3632579123815574 0.0
6.816538849831732 0.2013284992826486 0.0
2.108503954619862 0.5359795950847274 0.0
6.933669557130528 0.4980836483776163 0.0
3.071406705674529 0.4919421055852253 0.0
2.001240035874449 0.2292738462614773 0.0
4.782473531509697 0.4061213127162872 0.0
0.5734126310178208 1.536352720889636 0.0
9.796714529589472 0.4898048068674991 0.0
5.678359041645315 0.373719883316694 0.0
5.427661572827738 0.3646059266294788 0.0
2.075214597532947 1.226969224366912 0.0
3.251521478555126 0.2637671977660283 0.0
2.722180837291864 0.9710783334409533 0.0
9.333262390342384 0.8479609887828539 0.0
1.367251332770493 0.2041553944563636 0.0
1.870721433742522 0.7905989208842599 0.0
1.387906762913351 1.555741687747287 0.0
9.559918612869 0.8444052974080497 0.0
9.286795039366257 0.4698254290795815 0.0
[...]
POINT_DATA 600

VECTORS Velocity float
0.0000000000000000 0.0000000000000000 0.0
0.0000000000000000 0.0000000000000000 0.0
0.0000000000000000 0.0000000000000000 0.0
0.0000000000000000 0.0000000000000000 0.0
0.0000000000000000 0.0000000000000000 0.0
0.0000000000000000 0.0000000000000000 0.0
0.0000000000000000 0.0000000000000000 0.0
0.0000000000000000 0.0000000000000000 0.0
0.0000000000000000 0.0000000000000000 0.0
0.0000000000000000 0.0000000000000000 0.0
0.0000000000000000 0.0000000000000000 0.0
0.0000000000000000 0.0000000000000000 0.0
0.0000000000000000 0.0000000000000000 0.0
0.0000000000000000 0.0000000000000000 0.0
0.0000000000000000 0.0000000000000000 0.0
0.0000000000000000 0.0000000000000000 0.0
0.0000000000000000 0.0000000000000000 0.0
0.0000000000000000 0.0000000000000000 0.0
0.0000000000000000 0.0000000000000000 0.0
0.0000000000000000 0.0000000000000000 0.0
0.0000000000000000 0.0000000000000000 0.0
0.0000000000000000 0.0000000000000000 0.0
0.0000000000000000 0.0000000000000000 0.0
0.0000000000000000 0.0000000000000000 0.0
0.0000000000000000 0.0000000000000000 0.0
0.0000000000000000 0.0000000000000000 0.0
0.0000000000000000 0.0000000000000000 0.0
0.0000000000000000 0.0000000000000000 0.0
0.0000000000000000 0.0000000000000000 0.0
0.0000000000000000 0.0000000000000000 0.0
0.0000000000000000 0.0000000000000000 0.0
0.0000000000000000 0.0000000000000000 0.0
0.0000000000000000 0.0000000000000000 0.0
0.0000000000000000 0.0000000000000000 0.0
0.0000000000000000 0.0000000000000000 0.0
0.0000000000000000 0.0000000000000000 0.0
0.0000000000000000 0.0000000000000000 0.0
0.0000000000000000 0.0000000000000000 0.0
0.0000000000000000 0.0000000000000000 0.0
0.0000000000000000 0.0000000000000000 0.0
0.0000000000000000 0.0000000000000000 0.0
0.0000000000000000 0.0000000000000000 0.0
0.8263405895030519 -0.1295798388839918 0.0
0.0000000000000000 0.0000000000000000 0.0
0.0000000000000000 0.0000000000000000 0.0
0.0000000000000000 0.0000000000000000 0.0
0.0000000000000000 0.0000000000000000 0.0
0.0000000000000000 0.0000000000000000 0.0
0.0000000000000000 0.0000000000000000 0.0
0.0000000000000000 0.0000000000000000 0.0
0.0000000000000000 0.0000000000000000 0.0
0.0000000000000000 0.0000000000000000 0.0
0.0000000000000000 0.0000000000000000 0.0
0.0000000000000000 0.0000000000000000 0.0
0.0000000000000000 0.0000000000000000 0.0
0.0000000000000000 0.0000000000000000 0.0
0.0000000000000000 0.0000000000000000 0.0
0.0000000000000000 0.0000000000000000 0.0
0.0000000000000000 0.0000000000000000 0.0
0.0000000000000000 0.0000000000000000 0.0
0.0000000000000000 0.0000000000000000 0.0
0.0000000000000000 0.0000000000000000 0.0
0.0000000000000000 0.0000000000000000 0.0
0.0000000000000000 0.0000000000000000 0.0
0.0000000000000000 0.0000000000000000 0.0
0.0000000000000000 0.0000000000000000 0.0
0.0000000000000000 0.0000000000000000 0.0
0.0000000000000000 0.0000000000000000 0.0
0.0000000000000000 0.0000000000000000 0.0
0.0000000000000000 0.0000000000000000 0.0
0.0000000000000000 0.0000000000000000 0.0
0.0000000000000000 0.0000000000000000 0.0
0.0000000000000000 0.0000000000000000 0.0
0.0000000000000000 0.0000000000000000 0.0
0.0000000000000000 0.0000000000000000 0.0
0.0000000000000000 0.0000000000000000 0.0
0.0000000000000000 0.0000000000000000 0.0
0.0000000000000000 0.0000000000000000 0.0
0.0000000000000000 0.0000000000000000 0.0
0.0000000000000000 0.0000000000000000 0.0
0.0000000000000000 0.0000000000000000 0.0
0.0000000000000000 0.0000000000000000 0.0
0.0000000000000000 0.0000000000000000 0.0
0.0000000000000000 0.0000000000000000 0.0
0.0000000000000000 0.0000000000000000 0.0
0.0000000000000000 0.0000000000000000 0.0
0.0000000000000000 0.0000000000000000 0.0
0.0000000000000000 0.0000000000000000 0.0
0.0000000000000000 0.0000000000000000 0.0
1.0000000000000000 0.0000000000000000 0.0
1.0000000000000000 0.0000000000000000 0.0
1.0000000000000000 0.0000000000000000 0.0
1.0000000000000000 0.0000000000000000 0.0
1.0000000000000000 0.0000000000000000 0.0
1.0000000000000000 0.0000000000000000 0.0
1.0000000000000000 0.0000000000000000 0.0
1.0000000000000000 0.0000000000000000 0.0
1.0000000000000000 0.0000000000000000 0.0
0.0000000000000000 0.0000000000000000 0.0
0.0000000000000000 0.0000000000000000 0.0
0.0000000000000000 0.0000000000000000 0.0
0.0000000000000000 0.0000000000000000 0.0
0.0000000000000000 0.0000000000000000 0.0
0.0000000000000000 0.0000000000000000 0.0
0.0000000000000000 0.0000000000000000 0.0
0.0000000000000000 0.0000000000000000 0.0
0.0000000000000000 0.0000000000000000 0.0
0.0000000000000000 0.0000000000000000 0.0
0.0000000000000000 0.0000000000000000 0.0
0.0000000000000000 0.0000000000000000 0.0
0.0000000000000000 0.0000000000000000 0.0
0.0000000000000000 0.0000000000000000 0.0
0.0000000000000000 0.0000000000000000 0.0
0.0000000000000000 0.0000000000000000 0.0
0.0000000000000000 0.0000000000000000 0.0
0.0000000000000000 0.0000000000000000 0.0
0.0000000000000000 0.0000000000000000 0.0
0.0000000000000000 0.0000000000000000 0.0
0.0000000000000000 0.0000000000000000 0.0
0.0000000000000000 0.0000000000000000 0.0
0.0000000000000000 0.0000000000000000 0.0
0.0000000000000000 0.0000000000000000 0.0
0.0000000000000000 0.0000000000000000 0.0
0.0000000000000000 0.0000000000000000 0.0
0.0000000000000000 0.0000000000000000 0.0
0.0000000000000000 0.0000000000000000 0.0
0.0000000000000000 0.0000000000000000 0.0
0.0000000000000000 0.0000000000000000 0.0
0.0000000000000000 0.0000000000000000 0.0
0.0000000000000000 0.0000000000000000 0.0
0.0000000000000000 0.0000000000000000 0.0
0.0000000000000000 0.0000000000000000 0.0
0.0000000000000000 0.0000000000000000 0.0
0.0000000000000000 0.0000000000000000 0.0
0.0000000000000000 0.0000000000000000 0.0
0.0000000000000000 0.0000000000000000 0.0
0.0000000000000000 0.0000000000000000 0.0
0.0000000000000000 0.0000000000000000 0.0
0.0000000000000000 0.0000000000000000 0.0
0.0000000000000000 0.0000000000000000 0.0
0.0000000000000000 0.0000000000000000 0.0
0.0000000000000000 0.0000000000000000 0.0
0.0000000000000000 0.0000000000000000 0.0
0.0000000000000000 0.0000000000000000 0.0
0.0000000000000000 0.0000000000000000 0.0
0.0000000000000000 0.0000000000000000 0.0
0.0000000000000000 0.0000000000000000 0.0
1.0709962810473892 -0.4508475979403160 0.0
0.9708954227690344 -0.1806128935646857 0.0
0.9822574323340072 -0.0261304744631844 0.0
1.0717607513477458 0.3706053590782925 0.0
1.2407223644009999 0.0032058265001805 0.0
1.2970830120511356 -0.0582744520397573 0.0
1.3530264703447701 -0.1316283302976098 0.0
1.2046120091171164 -0.0669956004132514 0.0
1.3015481870836967 -0.0809546914780288 0.0
1.4586014004358197 -0.0970728226318851 0.0
1.5291049885166774 -0.0225302875736112 0.0
1.4923998636109279 0.0154376183863933 0.0
1.5590528508528094 0.0852539290481413 0.0
1.4864406560148067 -0.1154367849912162 0.0
1.2217789996001431 -0.0033841574045175 0.0
1.2923616723371851 -0.0944160417655329 0.0
1.2141231544901332 0.1670344956054580 0.0
1.5588469320569787 0.0661946415668877 0.0
1.5400488138460573 0.0166366238146296 0.0
1.2074537144347732 -0.0607662935615181 0.0
1.2823333978307756 -0.0498318080015339 0.0
1.1938525011911800 -0.0245777296496759 0.0
1.5259726042710775 -0.0521954310761664 0.0
1.5764153900345315 0.0472254824129478 0.0
1.1452847911941759 0.0752067700699790 0.0
1.1874495398963429 -0.1917735704285678 0.0
1.4986441145961682 0.0185954325146502 0.0
1.5001848540621932 -0.0191086642336439 0.0
1.5292875185354298 0.0345553344321773 0.0
1.5514914055212428 0.0142012618549475 0.0
1.3280201503480928 -0.1313309902617373 0.0
1.4904631699207993 0.0044372799120449 0.0
1.6531005935403822 0.0247228025362786 0.0
1.3344733471586880 0.1207339724361818 0.0
1.2822195406745807 -0.0329784994004024 0.0
1.3717551548069065 -0.0428085610714864 0.0
1.3015875973682325 -0.1448817145818233 0.0
1.4814095162937202 0.0926682700174349 0.0
1.5159086858863171 0.0005833653352676 0.0
1.6260269552170510 -0.1021044211182719 0.0
1.6827980497691062 -0.0410294323992043 0.0
1.2253113335488857 -0.0670525964168734 0.0
1.5898949570428105 -0.0179437392688775 0.0
1.0769051141139139 0.0432281221448747 0.0
0.9819429764550830 0.0067552579027720 0.0
1.3669710819379062 -0.0703191475544620 0.0
1.0075227074753199 -0.0162973475591836 0.0
0.9790566115495666 -0.0482899042077805 0.0
1.1019362550502692 0.0063249315569961 0.0
1.2310350269158503 -0.0327003064516945 0.0
1.7925998626494120 -0.1331299609789798 0.0
1.2906398804753318 0.0008804790918652 0.0
1.0488369308904351 -0.0655330529210977 0.0
1.3208915504877998 -0.0735469833900491 0.0
1.3659214188571627 0.0357366651433942 0.0
1.3221834912023740 0.0052773272997407 0.0
1.2402504805742431 -0.0217843365817656 0.0
1.0640008956785898 -0.0267234378173132 0.0
1.1486223180964852 -0.0145016455674754 0.0
1.2590800190400406 0.0172597589734511 0.0
1.4405790616956706 -0.0659405747961879 0.0
1.2355240959208103 -0.0223356100751284 0.0
1.2173345952819652 -0.1907163045760669 0.0
1.1443587415312602 0.3011669470493371 0.0
1.0829333627921756 0.1653988409229258 0.0
1.3145043991857941 -0.0547604703946414 0.0
1.2370744947886647 0.0572736485370380 0.0
1.4018959159853426 0.0582596850382862 0.0
1.2342904597173987 0.0182047282621877 0.0
1.7370752535190350 0.0653723644405738 0.0
1.4716693623685533 0.0002345325871226 0.0
1.2671204699822642 -0.0387613869987289 0.0
1.0017795231499846 -0.0316541187223996 0.0
1.1380736809482643 -0.0304560472173170 0.0
1.5998200335820769 -0.1311767117757180 0.0
1.3075533931944070 0.0502612920068792 0.0
1.4415451438623967 0.0692851951544162 0.0
1.2845460178869230 -0.0322977063715487 0.0
1.2479784251821080 -0.0402438584827048 0.0
1.5246503984793212 -0.0402710857805815 0.0
1.6008919817836835 0.0414155095322385 0.0
1.2631553785361027 0.0047365691674936 0.0
1.3136938832931617 -0.0730590931546203 0.0
1.1137845739042118 -0.0751400154774582 0.0
1.0411093601271075 -0.0494334206441789 0.0
1.4053571194263004 -0.1355795014223425 0.0
1.2426589989857257 -0.1067391839146558 0.0
1.5804797380226505 0.0125791792470131 0.0
0.7211808704854566 0.0247472872617270 0.0
0.9521607464266653 0.0785905808778793 0.0
1.6619760281676543 0.0148164755720816 0.0
1.2494220416210808 -0.0020931695557305 0.0
0.9929518999418695 -0.0085299615182299 0.0
1.2598678548971389 -0.0675818970693473 0.0
1.2081540663271964 0.0070875197694585 0.0
1.1387304696795681 -0.2565171959464208 0.0
0.9227042074583294 0.0363526732338673 0.0
1.5824385991565411 0.0105895139182371 0.0
1.6555808267964456 -0.0109135366630117 0.0
0.9524707432688942 0.0561772330846361 0.0
1.5976942362454851 0.0553029029876494 0.0
1.0889482301031961 -0.1466114257982183 0.0
1.2297711379395233 0.0311577322210822 0.0
1.1347377869552235 -0.0345287862080915 0.0
1.2379025098991336 0.0191897704994417 0.0
1.6612173569299913 -0.0247240296826146 0.0
1.3676570885711601 -0.1879389509817908 0.0
1.4385245492827476 0.0412249279207910 0.0
1.4503229994540734 0.0855798369973744 0.0
1.3416115371042838 -0.0517363324559828 0.0
0.7499298990899329 -0.0889850157924018 0.0
1.3246057565884817 -0.1262565805485232 0.0
0.6856216225434880 -0.0082560528261725 0.0
1.2552072828948901 -0.0741302049150573 0.0
1.0402177291221972 0.0300200164903928 0.0
1.1853464319395191 -0.0085650269563701 0.0
1.1762253151620048 0.2214735041517687 0.0
1.1987787613452239 0.0698678216997982 0.0
0.8330020922076264 0.0144663048822072 0.0
1.2301809607771741 -0.0661341531516574 0.0
0.7245699228167354 0.0022237880340093 0.0
1.6439739350000195 0.0030033687400278 0.0
1.0185108595321948 0.0767245715305619 0.0
1.2995611670922012 -0.0932690801531614 0.0
1.1348486342897715 0.0015197058393562 0.0
1.4474683646350563 -0.1322996204159443 0.0
0.6434211589820004 -0.0450264375740988 0.0
1.1727147725883937 -0.0766700929226428 0.0
1.2218448378520528 -0.0768042137013344 0.0
1.2663862191725506 -0.0930905276409429 0.0
1.6239401373401303 -0.0132134100283094 0.0
1.5952489802991852 0.0474434289406087 0.0
0.9905627089753228 0.0396460857046050 0.0
1.2445689049704745 -0.0401789382318015 0.0
0.7924357333663700 0.0802617849602137 0.0
0.6208350603787757 -0.0024332626547939 0.0
0.5352804951337955 0.0277595757237854 0.0
1.2982538491287710 -0.0678382771663648 0.0
0.6597108082894754 0.1425200358643218 0.0
0.7258294841160441 -0.0071618778631325 0.0
1.5086357492558131 0.0169642001366654 0.0
1.2976352559708804 -0.0583021098158389 0.0
1.2219569173645819 -0.0347028476601851 0.0
1.5457000709458149 0.0581661123458130 0.0
1.2921056417287315 -0.0539102425661614 0.0
1.5669690768064171 0.0299519403157818 0.0
1.1870278445913574 0.0604051578812746 0.0
1.1261331658894504 -0.2160329691287586 0.0
1.1700684315081560 0.1336525858265173 0.0
1.1073419940675013 0.2120348348563402 0.0
1.0729602482109883 -0.0471622320061680 0.0
1.1838499534280571 0.0272318146471938 0.0
0.9331683945643067 0.0385357797235280 0.0
0.6602827075394067 0.1200454625524413 0.0
0.9920396733218401 -0.0117144854794970 0.0
1.2669300576976477 -0.0274500467225721 0.0
0.7722175751718308 0.0689367907018469 0.0
1.2271289303489596 0.0306639309310813 0.0
1.2966734603534804 -0.0463804812608487 0.0
0.9593791778205943 -0.0094814468681552 0.0
1.2632607747210518 0.0324098763081425 0.0
1.4965100568355063 0.0456777310137454 0.0
1.1931760314117577 -0.1191842734309945 0.0
1.2847387172120888 -0.0861470503846759 0.0
0.6158910192263007 0.1217212025641949 0.0
0.6162646738099972 0.0952594560452073 0.0
0.8441737026282774 -0.0116043222875984 0.0
1.4293578406505325 -0.0855314747662798 0.0
1.3061428257539642 -0.0583806003809460 0.0
0.6417924947229514 0.1387456231647323 0.0
0.7455792731580377 -0.0420216258517074 0.0
1.1167455419856731 0.0177969128250844 0.0
1.3939584210431950 -0.0825286643688206 0.0
0.9883953247603761 -0.0079193165705607 0.0
1.2080729431796042 0.0108732037860979 0.0
1.2872021591817342 -0.0558397864549239 0.0
0.9586525756235125 0.0081455563010992 0.0
0.8746432728309752 0.0688793525917520 0.0
1.3244036360301159 0.0004881981299996 0.0
0.7843163314793217 -0.0266480742687561 0.0
1.5513672085473942 -0.0244516122362181 0.0
0.7751952641898028 0.0210220414665734 0.0
0.7801982872247868 -0.0271530708654464 0.0
1.2551288735510566 -0.0611701342159301 0.0
1.2806916030053057 -0.0139537171125286 0.0
0.9978179811742657 0.0070947991665729 0.0
0.6823467441781765 0.1618211261850902 0.0
0.9048929092978615 -0.0030133874745868 0.0
1.2028325963462547 -0.0335147392764005 0.0
0.8456876460383683 0.0733430389378537 0.0
1.1961803502924240 0.1054352481992271 0.0
1.1692985932877946 -0.0527349800691427 0.0
0.6915479651838000 0.0185592118972512 0.0
1.4778788244883425 -0.0168738312901627 0.0
0.9139861453132673 -0.0104374346083059 0.0
1.4959817443896568 -0.0207635902172098 0.0
0.5183703190132426 -0.0400213484304132 0.0
1.3536866496091968 -0.1435190471164248 0.0
1.5420998781934196 -0.0140749888107973 0.0
0.6463576078196922 0.1062927717998815 0.0
0.7869580990355545 -0.0248207439631294 0.0
1.5574294150301424 0.0692787829117380 0.0
0.9498372811451250 0.0734241671631798 0.0
1.5352442180244108 0.0509373131870200 0.0
1.0984074026209416 -0.0446804667504118 0.0
0.8115371468175843 -0.0556439478817297 0.0
0.7271853229146860 -0.0195262409700252 0.0
1.0102432337940317 -0.0250806648892516 0.0
0.9944834141090949 0.0293715744239380 0.0
1.4614613583138663 0.0118019875021397 0.0
0.5796826611795342 0.0355857355346311 0.0
0.8768926019149449 -0.0587508528322750 0.0
0.8483909125787320 0.0528589764610790 0.0
1.4181533313439763 0.0701350646745639 0.0
0.8080367822637450 -0.1949420891284672 0.0
0.8275920173601652 -0.0255167667080620 0.0
0.5481820158462588 -0.0459326697044616 0.0
1.1418041511427055 -0.0086642980182431 0.0
0.7540023201186119 0.1708218871597217 0.0
0.8955602579185381 0.0428320197224060 0.0
1.2575355668290988 -0.1300915027227882 0.0
0.7778802346635727 -0.0157559996506524 0.0
0.9051302964854901 -0.0025278316743136 0.0
1.0965278291806719 -0.0363424062447594 0.0
0.7960770621693025 -0.0256651742402649 0.0
0.7670486406440719 -0.0459214636918681 0.0
1.4549882964761527 0.0310482650724416 0.0
0.8092798691712594 -0.0306288784298790 0.0
1.0346516963422279 -0.0526799118368353 0.0
0.8395499175811160 0.0546916496482067 0.0
1.2975498439749906 -0.0624961933832514 0.0
0.6588765973390972 -0.0138869998185638 0.0
0.4805009546678521 0.0093179049985571 0.0
1.1446532632418802 -0.0455267759359469 0.0
0.8430787522613826 0.0950571700160458 0.0
0.7931810558678896 -0.0175507834683915 0.0
0.9554226838891358 0.0557100909958443 0.0
1.2351020397971091 -0.0186134635671735 0.0
0.6801232298967673 -0.0180065561883958 0.0
1.2013162034063252 0.1744689885273419 0.0
1.4650786923960399 0.0008064870139049 0.0
0.7123394242951530 -0.0114779132440583 0.0
1.1339636046465709 0.0059907631049122 0.0
1.2210511861340769 -0.0423166991379791 0.0
1.1538798790106437 -0.0433115758271102 0.0
1.3076756474322619 -0.0958894621558604 0.0
0.5343888289961285 0.1869753961292327 0.0
1.7201555241984645 0.0207464390411693 0.0
1.2451699536296919 0.0211962894017088 0.0
0.5885699500641083 0.0518228100373004 0.0
1.3435046019408339 -0.1116941644308372 0.0
1.4560996278724638 -0.0954303713240895 0.0
0.6672776723817555 -0.0041122546128509 0.0
1.0222241196152615 -0.0015774922175671 0.0
0.6709295170976455 -0.0393489694039475 0.0
0.9511698191356865 -0.0773402227238698 0.0
0.7861830991506840 -0.0546492860791609 0.0
0.4616229865469832 0.1955569683157611 0.0
1.1583983638549891 0.1870529558539363 0.0
1.5937251701178496 0.0133135475039642 0.0
0.6173640495834251 0.2021418455001196 0.0
1.5606366348903709 -0.0537951337327653 0.0
1.7424744276105835 0.0898361798257380 0.0
0.6004292506150837 0.1847755267510546 0.0
1.4695331248715378 0.0437699549673133 0.0
1.3931257832417587 -0.1423337922098636 0.0
0.9317877329944408 0.2437587432908186 0.0
1.2974259223910747 -0.0173883629454279 0.0
1.3228150642017378 0.0165449637380960 0.0
0.7807243028963684 0.0898811557355830 0.0
1.3357828651357095 -0.0988949885586420 0.0
0.7238038703427940 -0.0559979377086597 0.0
0.6534940334459590 0.1720774021031843 0.0
0.4692827400431144 0.0275349406129350 0.0
1.2428270510112052 -0.0338553920162475 0.0
0.8917496356574560 -0.2696404448438565 0.0
1.4040863869294267 0.0933376255418230 0.0
1.2928965092882450 -0.0876784737961106 0.0
0.5776539245485608 -0.0108438333981751 0.0
0.6009668483567796 0.0470287057481540 0.0
0.7056779060788939 0.0174412804901111 0.0
1.1122868740252783 0.0220217388787456 0.0
1.1934004428010103 0.2432922365871927 0.0
0.5885073493207474 -0.0375037843749718 0.0
1.1783510502870209 -0.0430514350676365 0.0
0.5996488712759230 0.0429078700646891 0.0
1.5704359070970455 0.0378048134844549 0.0
0.5004974661968477 0.2290541025539976 0.0
0.7620390974908323 -0.1183633556001882 0.0
1.5284531362092668 -0.0451397026372433 0.0
1.2608342825953505 0.0312278602726485 0.0
1.4431265842656700 -0.1222336461932458 0.0
0.6911141533334322 0.0056810616642494 0.0
0.8680380301228912 -0.0340520278650972 0.0
1.4384013559456885 -0.0992364144473142 0.0
1.2906925498822179 -0.0557256646703660 0.0
1.0184905299644671 0.0607418615555336 0.0
1.4359334826378871 0.0354852647092781 0.0
1.2797333559988744 -0.0681216168870496 0.0
1.2252109207142279 0.1082389308674077 0.0
0.9549721316350557 -0.0062602741150083 0.0
0.7408040678384594 -0.0218958132679945 0.0
0.6717939622843505 -0.0457511463051508 0.0
1.3012311373458376 -0.0701122876604278 0.0
1.2814522265478940 -0.0359067348327581 0.0
1.1030769429643215 0.1051326019891127 0.0
0.3953945843883721 0.0293192171516994 0.0
1.4255747338079772 -0.1008874774624648 0.0
0.3495635594109561 0.1106894229724959 0.0
0.6939738386819234 0.1187170992318934 0.0
1.1412299853874071 -0.0011621285431883 0.0
0.5446133899027300 -0.1176963778779846 0.0
1.1469404168366020 -0.3021810109833067 0.0
1.3127787645109532 -0.0621989589963438 0.0
1.6057656914332805 -0.0163058280501969 0.0
0.7291357760419102 0.1110462783362032 0.0
1.5247733171136508 -0.0593891869078634 0.0
0.9201627808415859 -0.0323811003875159 0.0
1.3242964872922693 -0.0537613268427298 0.0
0.9242360822418532 -0.0263687465295285 0.0
0.5468150596637542 0.1838075157316327 0.0
0.9114176979704901 -0.0527424385450369 0.0
1.0323335183301909 -0.0628224150270822 0.0