# vtk DataFile Version 3.0
LucasCarvalhoTCC Results
ASCII

DATASET POLYDATA
FIELD FieldData 1
TIME 1 1 double
0.2

POINTS 600 float
0.0 2.0 0.0
0.25 1.989125 0.0
0.5 1.958 0.0
0.75 1.908875 0.0
1.0 1.844 0.0
1.25 1.765625 0.0
1.5 1.676 0.0
1.75 1.577375 0.0
2.0 1.472 0.0
2.25 1.362125 0.0
2.5 1.25 0.0
2.75 1.137875 0.0
3.0 1.028 0.0
3.25 0.922625 0.0
3.5 0.8240000000000001 0.0
3.75 0.734375 0.0
4.0 0.6560000000000001 0.0
4.25 0.5911249999999999 0.0
4.5 0.542 0.0
4.75 0.510875 0.0
5.0 0.5 0.0
5.25 0.5036250000000004 0.0
5.5 0.5140000000000002 0.0
5.75 0.5303750000000003 0.0
6.0 0.5519999999999996 0.0
6.25 0.578125 0.0
6.5 0.6080000000000005 0.0
6.75 0.6408749999999999 0.0
7.0 0.6760000000000002 0.0
7.25 0.7126249999999992 0.0
7.5 0.75 0.0
7.75 0.7873750000000004 0.0
8.0 0.8239999999999994 0.0
8.25 0.8591250000000001 0.0
8.5 0.8919999999999999 0.0
8.75 0.921875 0.0
9.0 0.9479999999999991 0.0
9.25 0.9696250000000011 0.0
9.5 0.9859999999999984 0.0
9.75 0.9963750000000013 0.0
10.0 1.0 0.0
0.0 0.0 0.0
10.0 0.0 0.0
0.124999999999674 1.994562500000014 0.0
0.3749999999999947 1.973562500000001 0.0
0.6249999999999918 1.933437500000002 0.0
0.874999999999979 1.876437500000006 0.0
1.124999999999963 1.804812500000012 0.0
1.374999999999944 1.72081250000002 0.0
1.624999999999985 1.626687500000006 0.0
1.874999999999953 1.52468750000002 0.0
2.124999999999936 1.417062500000028 0.0
2.374999999999952 1.306062500000022 0.0
2.624999999999919 1.193937500000036 0.0
2.87499999999992 1.082937500000035 0.0
3.124999999999946 0.9753125000000229 0.0
3.374999999999948 0.8733125000000204 0.0
3.624999999999972 0.77918750000001 0.0
3.874999999999963 0.6951875000000118 0.0
4.124999999999968 0.6235625000000082 0.0
4.394409538298571 0.5627485257243309 0.0
4.583333333333322 0.5316250000000015 0.0
4.666666666666668 0.5212499999999999 0.0
4.833333333333334 0.50725 0.0
4.916666666666667 0.503625 0.0
5.083333333333334 0.5012083333333335 0.0
5.166666666666666 0.502416666666667 0.0
5.333333333333334 0.5070833333333337 0.0
5.416666666666667 0.510541666666667 0.0
5.583333333333334 0.5194583333333336 0.0
5.666666666666666 0.5249166666666669 0.0
5.833333333333338 0.5375833333333339 0.0
5.916666666666661 0.544791666666666 0.0
6.105781577147724 0.5630541748119369 0.0
6.375 0.5930625000000003 0.0
6.624999999999988 0.6244374999999988 0.0
6.874999999999994 0.6584374999999991 0.0
7.125 0.6943124999999997 0.0
7.375 0.7313124999999996 0.0
7.624999999999994 0.7686874999999992 0.0
7.875 0.8056874999999999 0.0
8.125 0.8415624999999998 0.0
8.374999999999991 0.8755624999999989 0.0
8.624999999999995 0.9069374999999993 0.0
8.874999999999995 0.9349374999999991 0.0
9.125 0.9588125000000001 0.0
9.375 0.9778124999999998 0.0
9.625 0.9911874999999999 0.0
9.875 0.9981875000000007 0.0
0.0 1.799999999999167 0.0
0.0 1.6 0.0
0.0 1.400000000001387 0.0
0.0 1.200000000002774 0.0
0.0 1.000000000004117 0.0
0.0 0.8000000000033287 0.0
0.0 0.6000000000024965 0.0
0.0 0.4000000000016644 0.0
0.0 0.200000000000832 0.0
0.199999999999856 0.0 0.0
0.3999999999996677 0.0 0.0
0.5999999999994683 0.0 0.0
0.7999999999993286 0.0 0.0
0.9999999999991888 0.0 0.0
1.199999999999033 0.0 0.0
1.399999999998576 0.0 0.0
1.599999999997992 0.0 0.0
1.799999999997408 0.0 0.0
1.999999999996825 0.0 0.0
2.199999999996241 0.0 0.0
2.399999999995657 0.0 0.0
2.599999999995073 0.0 0.0
2.79999999999449 0.0 0.0
2.999999999993906 0.0 0.0
3.199999999993322 0.0 0.0
3.399999999992738 0.0 0.0
3.599999999992154 0.0 0.0
3.799999999991571 0.0 0.0
3.999999999991022 0.0 0.0
4.199999999991187 0.0 0.0
4.399999999991491 0.0 0.0
4.599999999991795 0.0 0.0
4.799999999992099 0.0 0.0
4.999999999992403 0.0 0.0
5.199999999992706 0.0 0.0
5.39999999999301 0.0 0.0
5.599999999993313 0.0 0.0
5.799999999993618 0.0 0.0
5.999999999993922 0.0 0.0
6.199999999994227 0.0 0.0
6.39999999999453 0.0 0.0
6.599999999994833 0.0 0.0
6.799999999995138 0.0 0.0
6.999999999995442 0.0 0.0
7.199999999995747 0.0 0.0
7.39999999999605 0.0 0.0
7.599999999996353 0.0 0.0
7.799999999996658 0.0 0.0
7.999999999996962 0.0 0.0
8.199999999997265 0.0 0.0
8.399999999997569 0.0 0.0
8.599999999997873 0.0 0.0
8.799999999998176 0.0 0.0
8.99999999999848 0.0 0.0
9.199999999998786 0.0 0.0
9.399999999999089 0.0 0.0
9.599999999999392 0.0 0.0
9.799999999999697 0.0 0.0
10.0 0.1999999999995579 0.0
10.0 0.3999999999989749 0.0
10.0 0.5999999999989468 0.0
10.0 0.7999999999994734 0.0
0.913963423524136 0.9126937851647636 0.0
1.629657910441747 0.8286436141773268 0.0
2.300136613917738 0.6369890708869279 0.0
0.5989085226155619 1.38125543468559 0.0
1.274155622640533 1.242773398230304 0.0
2.860215383945273 0.5217401976756945 0.0
9.469653920408135 0.4910067017840992 0.0
8.984679546317787 0.4696119782494839 0.0
8.499397693277212 0.4463630640980716 0.0
3.270918412356206 0.4522692359356972 0.0
1.223039611612243 0.5146439900227544 0.0
2.024812732135938 1.00818256045515 0.0
0.5365376864627701 0.5434316309416508 0.0
8.114834335444021 0.4602948767329583 0.0
7.742261962994204 0.4117304941858466 0.0
0.9443382341364558 1.456061359265878 0.0
1.665275621558886 1.201744468407863 0.0
1.89566112584099 0.4397284596316843 0.0
3.691409759982064 0.3560936332572802 0.0
7.368457390036411 0.3792926046732459 0.0
0.5071184951703254 0.9340893429149442 0.0
0.3822273842356539 1.647625881691675 0.0
5.916285335387544 0.2564903116750689 0.0
5.628860531758535 0.2582323053999509 0.0
5.380471017960128 0.2502349014663197 0.0
5.139244585769944 0.2549145445969738 0.0
2.686085237972266 0.8031095648160084 0.0
4.507599040026292 0.263176944655695 0.0
6.983755234374982 0.3380000000001097 0.0
9.720925955181613 0.6635813325201156 0.0
1.288006195687152 0.8759679848503046 0.0
9.20556379558699 0.6923669083350594 0.0
2.319913492084225 0.9512500928262699 0.0
8.73203612228155 0.6151508464420534 0.0
4.868679481352366 0.2526598053940744 0.0
4.10358044398202 0.3012437332986487 0.0
6.602422946953217 0.3126221952225479 0.0
2.534693527909069 0.3583319619586092 0.0
6.193332317503376 0.2894654215336858 0.0
0.8804088217382579 0.3735513844182569 0.0
0.7663303172393539 1.679065267574722 0.0
3.081211528283084 0.6968015573146217 0.0
1.241762689885858 1.521465072418641 0.0
1.573472750763779 0.3374689934575129 0.0
1.475107933015155 1.403918544935278 0.0
0.8212739503602162 1.195790902469637 0.0
4.681049549092561 0.3558177014380842 0.0
9.439519900118443 0.7366884444350511 0.0
2.201393787062887 0.3261463175998884 0.0
2.015369189818184 0.7109460688851087 0.0
8.32727069655695 0.6360373328685593 0.0
8.961488632119996 0.7119124617705204 0.0
9.22773266034565 0.3109430611770705 0.0
0.3000513553073295 1.178778127105867 0.0
1.91985473842554 1.233084801189704 0.0
8.749827252515535 0.3049638092131281 0.0
3.50551132590258 0.5576614504134195 0.0
3.040500962406976 0.290446660105673 0.0
9.72097519930939 0.3037986529514364 0.0
0.3073166349239687 0.3249300260882615 0.0
0.2948185331392187 0.7229775107826154 0.0
1.46029425821417 1.06552904833304 0.0
0.8085718129253527 0.673531272847494 0.0
7.913326191751847 0.5738936378911789 0.0
8.295349499871781 0.2556682497524391 0.0
4.31359646688283 0.3665214152100782 0.0
7.542842082022704 0.5249918217576657 0.0
1.058357552227335 1.116692590939024 0.0
2.214297272750292 1.159898327391242 0.0
2.901187336648686 0.8282146771898153 0.0
3.933498145061447 0.4325241689837319 0.0
7.956006969037984 0.2667411694088205 0.0
7.172393179434975 0.4835114022190097 0.0
1.440243631802057 0.6689433452646625 0.0
3.458541882144431 0.2581755850286561 0.0
5.791617360065465 0.3978542524532168 0.0
5.981529865241493 0.3900667299390458 0.0
1.083462543944253 0.7203994120564634 0.0
1.78518471978951 1.008552691762234 0.0
2.77360122246243 0.2689852172070111 0.0
2.565134389978369 0.9928826788184764 0.0
2.543046005790158 0.6034091352176242 0.0
3.293038780485421 0.6769811703257343 0.0
6.790787388653942 0.4353933509634578 0.0
1.140204059461831 0.2538227257007896 0.0
0.6242104065654487 0.2738473600765566 0.0
6.393430278703709 0.3766405270445946 0.0
8.533059390324546 0.6950580701614406 0.0
0.9961263693263854 1.612128843772703 0.0
1.697598586607002 0.5781950992180334 0.0
8.087930458724863 0.6517815437732153 0.0
0.2748906317360928 1.770749713716887 0.0
0.5785110002099415 1.757022387413085 0.0
5.550004842562332 0.3852675728674634 0.0
4.948161884155141 0.3480305424737933 0.0
1.741244734175577 1.381979611033466 0.0
5.312408927381063 0.3621256994047111 0.0
0.2492139438157334 1.453132031680879 0.0
7.597720022451821 0.2370268512906596 0.0
9.471021754366422 0.2472916581956264 0.0
7.714083843672875 0.600212897672991 0.0
4.520815862079482 0.3946753115680038 0.0
2.47356661122767 0.8007389356831706 0.0
7.325494311403363 0.528948935030723 0.0
7.147005275585743 0.2709670165999667 0.0
3.758046446289313 0.5474783841545341 0.0
3.893717059615281 0.1664960777568404 0.0
2.152835534199412 0.8614028741175742 0.0
8.995993312441625 0.1933410497113667 0.0
1.077676137392001 1.368204555688504 0.0
0.2429906229817933 0.9816066505657851 0.0
0.6261765586985547 1.180540007244081 0.0
9.81151801018651 0.816223424030724 0.0
0.6725442903064565 0.8425384371773644 0.0
1.74584086891446 0.2617492458514414 0.0
0.7667820686164357 1.440842670056678 0.0
8.539133693395232 0.1910926418035274 0.0
5.129145653242096 0.3632579123815574 0.0
6.816538849831732 0.2013284992826486 0.0
2.108503954619862 0.5359795950847274 0.0
6.933669557130528 0.4980836483776163 0.0
3.071406705674529 0.4919421055852253 0.0
2.001240035874449 0.2292738462614773 0.0
4.782473531509697 0.4061213127162872 0.0
0.5734126310178208 1.536352720889636 0.0
9.796714529589472 0.4898048068674991 0.0
5.678359041645315 0.373719883316694 0.0
5.427661572827738 0.3646059266294788 0.0
2.075214597532947 1.226969224366912 0.0
3.251521478555126 0.2637671977660283 0.0
2.722180837291864 0.9710783334409533 0.0
9.333262390342384 0.8479609887828539 0.0
1.367251332770493 0.2041553944563636 0.0
1.870721433742522 0.7905989208842599 0.0
1.387906762913351 1.555741687747287 0.0
9.559918612869 0.8444052974080497 0.0
9.286795039366257 0.4698254290795815 0.0
1.507117480770146 1.225129516597721 0.0
[...]
POINT_DATA 600

VECTORS Velocity float
0.0000000000000000 0.0000000000000000 0.0
0.0000000000000000 0.0000000000000000 0.0
0.0000000000000000 0.0000000000000000 0.0
0.0000000000000000 0.0000000000000000 0.0
0.0000000000000000 0.0000000000000000 0.0
0.0000000000000000 0.0000000000000000 0.0
0.0000000000000000 0.0000000000000000 0.0
0.0000000000000000 0.0000000000000000 0.0
0.0000000000000000 0.0000000000000000 0.0
0.0000000000000000 0.0000000000000000 0.0
0.0000000000000000 0.0000000000000000 0.0
0.0000000000000000 0.0000000000000000 0.0
0.0000000000000000 0.0000000000000000 0.0
0.0000000000000000 0.0000000000000000 0.0
0.0000000000000000 0.0000000000000000 0.0
0.0000000000000000 0.0000000000000000 0.0
0.0000000000000000 0.0000000000000000 0.0
0.0000000000000000 0.0000000000000000 0.0
0.0000000000000000 0.0000000000000000 0.0
0.0000000000000000 0.0000000000000000 0.0
0.0000000000000000 0.0000000000000000 0.0
0.0000000000000000 0.0000000000000000 0.0
0.0000000000000000 0.0000000000000000 0.0
0.0000000000000000 0.0000000000000000 0.0
0.0000000000000000 0.0000000000000000 0.0
0.0000000000000000 0.0000000000000000 0.0
0.0000000000000000 0.0000000000000000 0.0
0.0000000000000000 0.0000000000000000 0.0
0.0000000000000000 0.0000000000000000 0.0
0.0000000000000000 0.0000000000000000 0.0
0.0000000000000000 0.0000000000000000 0.0
0.0000000000000000 0.0000000000000000 0.0
0.0000000000000000 0.0000000000000000 0.0
0.0000000000000000 0.0000000000000000 0.0
0.0000000000000000 0.0000000000000000 0.0
0.0000000000000000 0.0000000000000000 0.0
0.0000000000000000 0.0000000000000000 0.0
0.0000000000000000 0.0000000000000000 0.0
0.0000000000000000 0.0000000000000000 0.0
0.0000000000000000 0.0000000000000000 0.0
0.0000000000000000 0.0000000000000000 0.0
0.0000000000000000 0.0000000000000000 0.0
0.8661804206146250 -0.0932579780598254 0.0
0.0000000000000000 0.0000000000000000 0.0
0.0000000000000000 0.0000000000000000 0.0
0.0000000000000000 0.0000000000000000 0.0
0.0000000000000000 0.0000000000000000 0.0
0.0000000000000000 0.0000000000000000 0.0
0.0000000000000000 0.0000000000000000 0.0
0.0000000000000000 0.0000000000000000 0.0
0.0000000000000000 0.0000000000000000 0.0
0.0000000000000000 0.0000000000000000 0.0
0.0000000000000000 0.0000000000000000 0.0
0.0000000000000000 0.0000000000000000 0.0
0.0000000000000000 0.0000000000000000 0.0
0.0000000000000000 0.0000000000000000 0.0
0.0000000000000000 0.0000000000000000 0.0
0.0000000000000000 0.0000000000000000 0.0
0.0000000000000000 0.0000000000000000 0.0
0.0000000000000000 0.0000000000000000 0.0
0.0000000000000000 0.0000000000000000 0.0
0.0000000000000000 0.0000000000000000 0.0
0.0000000000000000 0.0000000000000000 0.0
0.0000000000000000 0.0000000000000000 0.0
0.0000000000000000 0.0000000000000000 0.0
0.0000000000000000 0.0000000000000000 0.0
0.0000000000000000 0.0000000000000000 0.0
0.0000000000000000 0.0000000000000000 0.0
0.0000000000000000 0.0000000000000000 0.0
0.0000000000000000 0.0000000000000000 0.0
0.0000000000000000 0.0000000000000000 0.0
0.0000000000000000 0.0000000000000000 0.0
0.0000000000000000 0.0000000000000000 0.0
0.0000000000000000 0.0000000000000000 0.0
0.0000000000000000 0.0000000000000000 0.0
0.0000000000000000 0.0000000000000000 0.0
0.0000000000000000 0.0000000000000000 0.0
0.0000000000000000 0.0000000000000000 0.0
0.0000000000000000 0.0000000000000000 0.0
0.0000000000000000 0.0000000000000000 0.0
0.0000000000000000 0.0000000000000000 0.0
0.0000000000000000 0.0000000000000000 0.0
0.0000000000000000 0.0000000000000000 0.0
0.0000000000000000 0.0000000000000000 0.0
0.0000000000000000 0.0000000000000000 0.0
0.0000000000000000 0.0000000000000000 0.0
0.0000000000000000 0.0000000000000000 0.0
0.0000000000000000 0.0000000000000000 0.0
0.0000000000000000 0.0000000000000000 0.0
1.0000000000000000 0.0000000000000000 0.0
1.0000000000000000 0.0000000000000000 0.0
1.0000000000000000 0.0000000000000000 0.0
1.0000000000000000 0.0000000000000000 0.0
1.0000000000000000 0.0000000000000000 0.0
1.0000000000000000 0.0000000000000000 0.0
1.0000000000000000 0.0000000000000000 0.0
1.0000000000000000 0.0000000000000000 0.0
1.0000000000000000 0.0000000000000000 0.0
0.0000000000000000 0.0000000000000000 0.0
0.0000000000000000 0.0000000000000000 0.0
0.0000000000000000 0.0000000000000000 0.0
0.0000000000000000 0.0000000000000000 0.0
0.0000000000000000 0.0000000000000000 0.0
0.0000000000000000 0.0000000000000000 0.0
0.0000000000000000 0.0000000000000000 0.0
0.0000000000000000 0.0000000000000000 0.0
0.0000000000000000 0.0000000000000000 0.0
0.0000000000000000 0.0000000000000000 0.0
0.0000000000000000 0.0000000000000000 0.0
0.0000000000000000 0.0000000000000000 0.0
0.0000000000000000 0.0000000000000000 0.0
0.0000000000000000 0.0000000000000000 0.0
0.0000000000000000 0.0000000000000000 0.0
0.0000000000000000 0.0000000000000000 0.0
0.0000000000000000 0.0000000000000000 0.0
0.0000000000000000 0.0000000000000000 0.0
0.0000000000000000 0.0000000000000000 0.0
0.0000000000000000 0.0000000000000000 0.0
0.0000000000000000 0.0000000000000000 0.0
0.0000000000000000 0.0000000000000000 0.0
0.0000000000000000 0.0000000000000000 0.0
0.0000000000000000 0.0000000000000000 0.0
0.0000000000000000 0.0000000000000000 0.0
0.0000000000000000 0.0000000000000000 0.0
0.0000000000000000 0.0000000000000000 0.0
0.0000000000000000 0.0000000000000000 0.0
0.0000000000000000 0.0000000000000000 0.0
0.0000000000000000 0.0000000000000000 0.0
0.0000000000000000 0.0000000000000000 0.0
0.0000000000000000 0.0000000000000000 0.0
0.0000000000000000 0.0000000000000000 0.0
0.0000000000000000 0.0000000000000000 0.0
0.0000000000000000 0.0000000000000000 0.0
0.0000000000000000 0.0000000000000000 0.0
0.0000000000000000 0.0000000000000000 0.0
0.0000000000000000 0.0000000000000000 0.0
0.0000000000000000 0.0000000000000000 0.0
0.0000000000000000 0.0000000000000000 0.0
0.0000000000000000 0.0000000000000000 0.0
0.0000000000000000 0.0000000000000000 0.0
0.0000000000000000 0.0000000000000000 0.0
0.0000000000000000 0.0000000000000000 0.0
0.0000000000000000 0.0000000000000000 0.0
0.0000000000000000 0.0000000000000000 0.0
0.0000000000000000 0.0000000000000000 0.0
0.0000000000000000 0.0000000000000000 0.0
0.0000000000000000 0.0000000000000000 0.0
1.0619382073978749 -0.3007341974471145 0.0
0.9891369397949233 -0.0850474904267565 0.0
0.9856803029855618 -0.0324963873557105 0.0
1.0677416752982496 0.2049731203064994 0.0
1.0975045974021120 0.0049091259710560 0.0
1.1182783382473358 -0.0273719328515380 0.0
1.1277980640144212 -0.0546465947578720 0.0
1.1010559399334936 -0.0101002896639614 0.0
1.1452593431406426 -0.0350643443645292 0.0
1.1788989367680367 -0.0427556617104635 0.0
1.1942499327074469 -0.0111325020888943 0.0
1.2033957767572192 0.0054296703705852 0.0
1.2297964338594125 0.0274661351160679 0.0
1.2083278183253419 -0.0465366039156071 0.0
1.0826927160004944 -0.0029409237536437 0.0
1.1390145400066296 -0.0496015949998991 0.0
1.0733786921120687 0.0730247002012470 0.0
1.2425499350019313 0.0311469324392112 0.0
1.2284640147320873 0.0158919749453265 0.0
1.1286420773613439 -0.0309108201534857 0.0
1.1595844788881946 -0.0430057403421775 0.0
1.0874187356359499 -0.0111773533549286 0.0
1.3171626944911456 -0.0221421699273815 0.0
1.3180598987492096 0.0006836698723766 0.0
1.0708314826425331 0.0443102094574988 0.0
1.1780395704973401 -0.0608845215177006 0.0
1.3773789712299229 0.0288026085790168 0.0
1.3747239483946117 -0.0169309092610943 0.0
1.3893272147615094 0.0170641651443564 0.0
1.4105217327479020 0.0316075392722740 0.0
1.2513469126056975 -0.0954170768488682 0.0
1.3976230695258922 -0.0212490553230711 0.0
1.4352010776027411 0.0263822424764030 0.0
1.1444482575507005 0.0357472021093908 0.0
1.1098701054178428 -0.0127333481491150 0.0
1.2667189381085391 -0.0170144650267651 0.0
1.1556810693676256 -0.0803826982818124 0.0
1.2465828701624060 0.0596722772941773 0.0
1.3903071074380420 -0.0217840121267844 0.0
1.4677235956264731 -0.0663542345292428 0.0
1.5168074045117486 -0.0438814623759595 0.0
1.1511381945446160 -0.0205868127287441 0.0
1.4392561284004959 -0.0289425667842106 0.0
1.1301227936830036 0.0242163416062483 0.0
1.1815775849249954 -0.0620971434833914 0.0
1.2424517006094098 -0.0755008288665475 0.0
1.2315938008698943 -0.0982698258593332 0.0
1.1037941513613250 -0.0473030277845583 0.0
1.2570276815343644 -0.0615375456533305 0.0
1.1081404391635827 -0.0050347382467566 0.0
1.5357401443008856 -0.0924315394785578 0.0
1.3257312201526836 0.0028770156038900 0.0
1.1289579435016073 -0.0601742180867224 0.0
1.1210420352194961 -0.0396104648409831 0.0
1.3284905476426281 0.0315050611690156 0.0
1.2510105181277094 -0.0010899141108111 0.0
1.2685232946895535 -0.0074583979039839 0.0
1.0418978021682412 0.0311064999158125 0.0
1.2349920969397685 -0.0644524506459422 0.0
1.2514393647030591 0.0062499766984346 0.0
1.3351797274262709 -0.0766326278224557 0.0
1.2323169756109698 -0.0359870147294458 0.0
1.2188379172629560 -0.1043212974103701 0.0
1.1501880014733912 0.1400955761963764 0.0
1.0334999895506676 0.1019694837349406 0.0
1.1348407773435840 -0.0273173239554968 0.0
1.0825584707971325 0.0261516490231772 0.0
1.3473385087403831 0.0533745987579880 0.0
1.2537155507298121 0.0071854471305150 0.0
1.5479021132366975 0.0330250050571912 0.0
1.3527843979187422 0.0430693065901914 0.0
1.1166958553748276 -0.0130112978309765 0.0
1.1637756564452240 -0.1196879641172215 0.0
1.2436584079243764 -0.0675992433766478 0.0
1.3844306451476123 -0.0922276209433992 0.0
1.2765197613286987 0.0510800291148595 0.0
1.3299466179769093 0.0726575726372834 0.0
1.0991240690532429 -0.0173283087229482 0.0
1.2385511919046099 -0.0207950718340039 0.0
1.3733636862255763 -0.0219816111205549 0.0
1.3747360856907476 0.0370168847471653 0.0
1.0963400386224615 0.0025324403323910 0.0
1.1403230051665683 -0.0356808795519610 0.0
1.2088986251181546 -0.0290305342331205 0.0
1.1958643849394872 -0.1529217123567344 0.0
1.1540028220437200 -0.0585749414082916 0.0
1.2843858609822110 -0.1339051557461301 0.0
1.3944607198582459 -0.0181510142336175 0.0
1.0503140623644502 0.0152691542732771 0.0
1.1070581907520736 0.0430026522871446 0.0
1.4953027154006571 0.0371699258218565 0.0
1.3002341080442157 0.0416316211453264 0.0
1.2099496584828335 -0.0668751842303957 0.0
1.0915267513301035 -0.0207605671398569 0.0
1.3071425414529660 0.0329833657377610 0.0
1.2000950828521293 -0.1296343367387811 0.0
1.1774782119596299 0.0139819572983679 0.0
1.3503479084580967 0.0101602826514121 0.0
1.3993511246361445 -0.0080392943968852 0.0
1.2131397395545902 -0.0569262313069973 0.0
1.3723082253585379 0.0339181136426541 0.0
1.0524992897183403 -0.0220885058557301 0.0
1.2570685743397589 -0.0020439906520062 0.0
1.2523803982210768 -0.0169129519263176 0.0
1.3154159383645552 0.0285027440527654 0.0
1.4063327803010832 -0.0130881504147849 0.0
1.1593546541624300 -0.0780002227190704 0.0
1.3231644139468259 0.0161979387376914 0.0
1.3275699452323575 0.0383025127007674 0.0
1.3303470167823421 -0.0769092077697452 0.0
0.8595273864489391 -0.0656414583627409 0.0
1.1391208715115866 -0.0588999089905756 0.0
0.8833213523464981 -0.0021691685981462 0.0
1.1397905746234220 -0.0369409392515044 0.0
1.0395460231333460 0.0493165689389874 0.0
1.0879567317300978 0.0132086662140814 0.0
1.2125738889079472 0.1060484259215754 0.0
1.0838267173401748 0.0353293194969906 0.0
1.0633028534438123 0.0151576809541042 0.0
1.1215695579608718 -0.0195297245769829 0.0
0.9053682196614455 0.0118475411001622 0.0
1.4098948124073143 0.0111408126612490 0.0
1.0741746813912789 0.0559110252105672 0.0
1.1066624547211754 -0.0419857735913216 0.0
1.1006619015658048 0.0073975445040347 0.0
1.1844664097905975 -0.0505139477017755 0.0
0.8810691954200811 -0.0319825678488320 0.0
1.0991694024705623 -0.0222527341858580 0.0
1.1180139562472535 -0.0163623826932989 0.0
1.1095938727870471 -0.0499203681448617 0.0
1.3505283845628433 0.0060666192459019 0.0
1.3482254495048487 0.0207184014141313 0.0
1.1821770615941052 -0.0265708511341889 0.0
1.2190622229341073 -0.0253556313192733 0.0
0.9711435175292670 -0.0071303423710656 0.0
0.8550259266385896 0.0000250969992419 0.0
0.8021242896834075 0.0211488114659549 0.0
1.1227528677302845 -0.0334415706638599 0.0
0.9240909417586936 0.0371042277786228 0.0
0.9355132821230323 0.0048686603593432 0.0
1.2040943731636600 -0.0099983560249719 0.0
1.1549710852826365 -0.0338248172146719 0.0
1.2794159509258614 -0.0203290202698251 0.0
1.2184629647935754 0.0214478606631208 0.0
1.1251410322815090 -0.0221244266484574 0.0
1.3699955229113623 -0.0185586071763438 0.0
1.2385271623843936 0.0571999498340966 0.0
1.0785004398840667 -0.0794277307246669 0.0
1.0659417434121441 0.0660068635286194 0.0
1.0504509083709062 0.1383584935845049 0.0
1.0482859204180057 -0.0121651891761236 0.0
1.1275327855019155 0.0061797440042998 0.0
0.9743753626141504 -0.0098195698712186 0.0
0.8998941525786027 0.0109449132218298 0.0
1.0026798601395295 -0.0021566834791591 0.0
1.1089254676915086 -0.0081238300546541 0.0
0.8917807069386643 0.0745391756122190 0.0
1.0812636452888675 0.0049798786618499 0.0
1.1178283237633155 -0.0225644568816092 0.0
1.1088213509990132 0.0027418364124193 0.0
1.2366678868338101 0.0153077142252671 0.0
1.2081173001717291 0.0182479966087307 0.0
1.0911297699713220 -0.0160668103025368 0.0
1.1068174276398448 -0.0399305937980041 0.0
0.8892464828114280 0.0333581193928861 0.0
0.8870976016975665 0.0266474258349169 0.0
0.9448866117437511 0.0009352747103151 0.0
1.1892716237728007 -0.0505216044288353 0.0
1.1334848121397627 -0.0323570539701785 0.0
0.9164829498458371 0.0444370455545662 0.0
0.9416823254229758 -0.0126691308087084 0.0
1.0760820246493452 0.0166850725351241 0.0
1.1487496140532232 -0.0456369748333028 0.0
1.0838190363478302 0.0273647196340516 0.0
1.0914857954618549 0.0119891528287959 0.0
1.1092989309936359 -0.0292627383636754 0.0
1.0381702364893497 0.0002432987308051 0.0
1.0079682395863774 0.0192010693325894 0.0
1.2037048848098642 -0.0159683004997506 0.0
0.9649627422456559 -0.0060240568276160 0.0
1.2322077208298374 -0.0170219457171477 0.0
0.9159169435882426 0.0252973670905002 0.0
0.8981943733800941 -0.0101634727174306 0.0
1.1246309412779947 -0.0211609688040996 0.0
1.0967567038930308 -0.0047327635279156 0.0
1.0569905326529458 0.0076302482374852 0.0
0.9188838540533684 0.0366013742799683 0.0
0.8999462203176825 0.0073301277963571 0.0
1.0858370738316325 -0.0034187700420985 0.0
1.0260461297227903 -0.0192940192705060 0.0
1.0748746434902616 0.0504940843920201 0.0
1.2065407535647872 -0.0701923270809349 0.0
0.8780719022001494 0.0150059401101158 0.0
1.2005001417018577 -0.0084517064858065 0.0
1.0296404729007271 -0.0038814256465174 0.0
1.1796894677114911 -0.0153905558162627 0.0
0.7845968807683619 -0.0162497852291752 0.0
1.1505566856209324 -0.0662421915601149 0.0
1.2173332255666998 -0.0080101664014122 0.0
0.9255911676904279 0.0246332608661419 0.0
0.9137776013627944 -0.0267674858284835 0.0
1.2222069908055460 0.0361598329029609 0.0
1.0721591558250281 -0.0064251280331075 0.0
1.2201014999591151 0.0244162028375335 0.0
1.1804627245112242 -0.0574537357569239 0.0
0.9495520298370295 -0.0256546780987217 0.0
0.9224145762888583 -0.0022755459244267 0.0
1.0481507531909546 -0.0022911111957669 0.0
1.0504645693851242 0.0143660816430563 0.0
1.3758473513074276 -0.0003256958842189 0.0
0.8079039230682531 0.0246020936842125 0.0
0.9695904548158981 -0.0328673832856034 0.0
0.9179298846898214 0.0297099796460590 0.0
1.2659394304118039 0.0171865324390268 0.0
0.8962532522743111 -0.1038553945951923 0.0
0.9173325408516123 -0.0071871528541404 0.0
0.7775697135544519 -0.0146070829271874 0.0
1.1956514569661583 -0.0344309809852932 0.0
0.9237910319994811 0.0704655989344147 0.0
0.9546459252502237 0.0289251628461871 0.0
1.1405598501327330 -0.0694821935294580 0.0
0.9294813151345430 0.0088583447494138 0.0
0.9811920620701172 -0.0138467316236102 0.0
1.1682288713397251 -0.0461066291694425 0.0
0.9322183038534180 -0.0021507411104034 0.0
0.9035454240931635 -0.0177267000177465 0.0
1.1934167879606887 0.0191435846539930 0.0
0.9718581006010769 -0.0048504215615864 0.0
1.0233444809959467 -0.0083860955165177 0.0
0.8890839256392884 0.0315364294468047 0.0
1.1517135724430063 -0.0479146393919150 0.0
0.8366577579197947 -0.0085506180029687 0.0
0.7281521944273811 0.0233635247218571 0.0
1.0719196839767351 0.0146607808388960 0.0
0.9984972753046701 0.0179251058847898 0.0
0.8916218068185160 -0.0061018148225971 0.0
1.0120046734838255 0.0092897203947522 0.0
1.1026637632065179 -0.0019611284837907 0.0
0.9215803931856524 -0.0130905161680737 0.0
1.0851332591374581 0.0541511501372177 0.0
1.2017718284729144 0.0012166516330461 0.0
0.8222019028394451 -0.0013747945361338 0.0
1.0708754098564137 -0.0088808443999649 0.0
1.1073534471254725 -0.0077561331423354 0.0
1.0720700446967242 -0.0269000396489661 0.0
1.1361867320133865 -0.0467678092643390 0.0
0.7724539638485333 0.0956229163961508 0.0
1.3878815883358240 0.0113191345332567 0.0
1.0939307996595258 0.0089922625310471 0.0
0.7859774056557075 0.0536103060557874 0.0
1.1276288344548753 -0.0522163234582762 0.0
1.1872535262413844 -0.0617665084266683 0.0
0.8516027405777506 -0.0106436938057708 0.0
1.0248856106202184 0.0182452609673501 0.0
0.7948910402528210 -0.0162315216039616 0.0
0.9662762106084442 -0.0479336285744362 0.0
0.8738177259947710 -0.0671498469533911 0.0
0.7066545968769260 0.1113215607982020 0.0
1.1082105264136997 0.0680787091251918 0.0
1.3591413060661475 0.0271350684821210 0.0
0.8431475342909782 0.0911562189767726 0.0
1.2303071580247773 0.0031064569476295 0.0
1.4913824916049416 -0.0127424560942919 0.0
0.8443601117904925 0.0758779032591741 0.0
1.2733873764168404 0.0472787252491173 0.0
1.2130972843783867 -0.0710496090096210 0.0
0.9812809036744218 0.1851459288094214 0.0
1.2195165504154215 -0.0317589673919023 0.0
1.2658322753401035 0.0145057992421194 0.0
0.8531283454771577 0.0617607379658893 0.0
1.2084758093703245 -0.0297592455109837 0.0
0.9308101879701323 -0.0449366391849529 0.0
0.8833994705623280 0.0767121910498229 0.0
0.7044156940942509 0.0541147510154271 0.0
1.1523792217412812 -0.0257306188916825 0.0
0.9573064844700905 -0.1905109632674197 0.0
1.2648974973331517 0.0396384680362711 0.0
1.1950575599108264 -0.0250385821475866 0.0
0.7745383809830139 -0.0173284857236810 0.0
0.7947406189256130 0.0487004402495242 0.0
0.8474202575355542 0.0060822225540109 0.0
1.0661015471779756 0.0430758303655342 0.0
1.0700332872154721 0.1107646172786479 0.0
0.7952148580408614 -0.0452798373026500 0.0
1.1320310611445894 -0.0243022013766403 0.0
0.7625035421844868 0.0572245348630770 0.0
1.3665004242868710 0.0119870138192163 0.0
0.7434320113587286 0.1334908390499355 0.0
0.9057639447902633 -0.0859830886503347 0.0
1.2939631008207715 -0.0397529012847592 0.0
1.2328935409043889 0.0182607142662306 0.0
1.1776707112586100 -0.0518029655793518 0.0
0.8424282585805967 0.0030804935948701 0.0
0.9741845593413481 -0.0181363567239824 0.0
1.1859981103663342 -0.0494925660867111 0.0
1.1057855198736140 -0.0212851749581365 0.0
1.0180388378182323 0.0694704318446447 0.0
1.2561678604307445 0.0219835770785418 0.0
1.1355548679708500 -0.0262989557564646 0.0
1.0774771958707750 0.0459456469641368 0.0
1.0806365261306869 0.0144932196297387 0.0
0.8534509639013316 -0.0212667708624402 0.0
0.8111140314508641 -0.0214703077660376 0.0
1.1528394521768217 -0.0425045527602333 0.0
1.1076071453949896 -0.0297229012635850 0.0
1.0610906194558072 0.0778265642318446 0.0
0.6576329719261845 0.0349184191340208 0.0
1.2590617185080759 -0.0856567147137220 0.0
0.6264960067438502 0.0525116394029302 0.0
0.8511635955694384 0.0596338162579814 0.0
1.1818703683784224 -0.0645526165685389 0.0
0.7352815896061335 -0.1136811453800956 0.0
1.1047957752380775 -0.1691564852925811 0.0
1.1397275302854044 -0.0279595274500381 0.0
1.3218649735615540 -0.0049716688528441 0.0
0.8389306853929297 0.0726541207923724 0.0
1.3918100492327479 -0.0366229309212375 0.0
0.9917504364230718 -0.0194973885395914 0.0
1.1423486080462242 -0.0370096091244309 0.0
0.9906786646985645 -0.0132864366141460 0.0
0.7817776155389556 0.0917678727321495 0.0
0.9767502489456806 -0.0285304745699782 0.0
1.0773580434778260 -0.0162260920665222 0.0