# vtk DataFile Version 3.0
LucasCarvalhoTCC Results
ASCII

DATASET POLYDATA
FIELD FieldData 1
TIME 1 1 double
2.8000000000000003

POINTS 600 float
0.0 2.0 0.0
0.25 1.989125 0.0
0.5 1.958 0.0
0.75 1.908875 0.0
1.0 1.844 0.0
1.25 1.765625 0.0
1.5 1.676 0.0
1.75 1.577375 0.0
2.0 1.472 0.0
2.25 1.362125 0.0
2.5 1.25 0.0
2.75 1.137875 0.0
3.0 1.028 0.0
3.25 0.922625 0.0
3.5 0.8240000000000001 0.0
3.75 0.734375 0.0
4.0 0.6560000000000001 0.0
4.25 0.5911249999999999 0.0
4.5 0.542 0.0
4.75 0.510875 0.0
5.0 0.5 0.0
5.25 0.5036250000000004 0.0
5.5 0.5140000000000002 0.0
5.75 0.5303750000000003 0.0
6.0 0.5519999999999996 0.0
6.25 0.578125 0.0
6.5 0.6080000000000005 0.0
6.75 0.6408749999999999 0.0
7.0 0.6760000000000002 0.0
7.25 0.7126249999999992 0.0
7.5 0.75 0.0
7.75 0.7873750000000004 0.0
8.0 0.8239999999999994 0.0
8.25 0.8591250000000001 0.0
8.5 0.8919999999999999 0.0
8.75 0.921875 0.0
9.0 0.9479999999999991 0.0
9.25 0.9696250000000011 0.0
9.5 0.9859999999999984 0.0
9.75 0.9963750000000013 0.0
10.0 1.0 0.0
0.0 0.0 0.0
10.0 0.0 0.0
0.124999999999674 1.994562500000014 0.0
0.3749999999999947 1.973562500000001 0.0
0.6249999999999918 1.933437500000002 0.0
0.874999999999979 1.876437500000006 0.0
1.124999999999963 1.804812500000012 0.0
1.374999999999944 1.72081250000002 0.0
1.624999999999985 1.626687500000006 0.0
1.874999999999953 1.52468750000002 0.0
2.124999999999936 1.417062500000028 0.0
2.374999999999952 1.306062500000022 0.0
2.624999999999919 1.193937500000036 0.0
2.87499999999992 1.082937500000035 0.0
3.124999999999946 0.9753125000000229 0.0
3.374999999999948 0.8733125000000204 0.0
3.624999999999972 0.77918750000001 0.0
3.874999999999963 0.6951875000000118 0.0
4.124999999999968 0.6235625000000082 0.0
4.394409538298571 0.5627485257243309 0.0
4.583333333333322 0.5316250000000015 0.0
4.666666666666668 0.5212499999999999 0.0
4.833333333333334 0.50725 0.0
4.916666666666667 0.503625 0.0
5.083333333333334 0.5012083333333335 0.0
5.166666666666666 0.502416666666667 0.0
5.333333333333334 0.5070833333333337 0.0
5.416666666666667 0.510541666666667 0.0
5.583333333333334 0.5194583333333336 0.0
5.666666666666666 0.5249166666666669 0.0
5.833333333333338 0.5375833333333339 0.0
5.916666666666661 0.544791666666666 0.0
6.105781577147724 0.5630541748119369 0.0
6.375 0.5930625000000003 0.0
6.624999999999988 0.6244374999999988 0.0
6.874999999999994 0.6584374999999991 0.0
7.125 0.6943124999999997 0.0
7.375 0.7313124999999996 0.0
7.624999999999994 0.7686874999999992 0.0
7.875 0.8056874999999999 0.0
8.125 0.8415624999999998 0.0
8.374999999999991 0.8755624999999989 0.0
8.624999999999995 0.9069374999999993 0.0
8.874999999999995 0.9349374999999991 0.0
9.125 0.9588125000000001 0.0
9.375 0.9778124999999998 0.0
9.625 0.9911874999999999 0.0
9.875 0.9981875000000007 0.0
0.0 1.799999999999167 0.0
0.0 1.6 0.0
0.0 1.400000000001387 0.0
0.0 1.200000000002774 0.0
0.0 1.000000000004117 0.0
0.0 0.8000000000033287 0.0
0.0 0.6000000000024965 0.0
0.0 0.4000000000016644 0.0
0.0 0.200000000000832 0.0
0.199999999999856 0.0 0.0
0.3999999999996677 0.0 0.0
0.5999999999994683 0.0 0.0
0.7999999999993286 0.0 0.0
0.9999999999991888 0.0 0.0
1.199999999999033 0.0 0.0
1.399999999998576 0.0 0.0
1.599999999997992 0.0 0.0
1.799999999997408 0.0 0.0
1.999999999996825 0.0 0.0
2.199999999996241 0.0 0.0
2.399999999995657 0.0 0.0
2.599999999995073 0.0 0.0
2.79999999999449 0.0 0.0
2.999999999993906 0.0 0.0
3.199999999993322 0.0 0.0
3.399999999992738 0.0 0.0
3.599999999992154 0.0 0.0
3.799999999991571 0.0 0.0
3.999999999991022 0.0 0.0
4.199999999991187 0.0 0.0
4.399999999991491 0.0 0.0
4.599999999991795 0.0 0.0
4.799999999992099 0.0 0.0
4.999999999992403 0.0 0.0
5.199999999992706 0.0 0.0
5.39999999999301 0.0 0.0
5.599999999993313 0.0 0.0
5.799999999993618 0.0 0.0
5.999999999993922 0.0 0.0
6.199999999994227 0.0 0.0
6.39999999999453 0.0 0.0
6.599999999994833 0.0 0.0
6.799999999995138 0.0 0.0
6.999999999995442 0.0 0.0
7.199999999995747 0.0 0.0
7.39999999999605 0.0 0.0
7.599999999996353 0.0 0.0
7.799999999996658 0.0 0.0
7.999999999996962 0.0 0.0
8.199999999997265 0.0 0.0
8.399999999997569 0.0 0.0
8.599999999997873 0.0 0.0
8.799999999998176 0.0 0.0
8.99999999999848 0.0 0.0
9.199999999998786 0.0 0.0
9.399999999999089 0.0 0.0
9.599999999999392 0.0 0.0
9.799999999999697 0.0 0.0
10.0 0.1999999999995579 0.0
10.0 0.3999999999989749 0.0
10.0 0.5999999999989468 0.0
10.0 0.7999999999994734 0.0
0.913963423524136 0.9126937851647636 0.0
1.629657910441747 0.8286436141773268 0.0
2.300136613917738 0.6369890708869279 0.0
0.5989085226155619 1.38125543468559 0.0
1.274155622640533 1.242773398230304 0.0
2.860215383945273 0.5217401976756945 0.0
9.469653920408135 0.4910067017840992 0.0
8.984679546317787 0.4696119782494839 0.0
8.499397693277212 0.4463630640980716 0.0
3.270918412356206 0.4522692359356972 0.0
1.223039611612243 0.5146439900227544 0.0
2.024812732135938 1.00818256045515 0.0
0.5365376864627701 0.5434316309416508 0.0
8.114834335444021 0.4602948767329583 0.0
7.742261962994204 0.4117304941858466 0.0
0.9443382341364558 1.456061359265878 0.0
1.665275621558886 1.201744468407863 0.0
1.89566112584099 0.4397284596316843 0.0
3.691409759982064 0.3560936332572802 0.0
7.368457390036411 0.3792926046732459 0.0
0.5071184951703254 0.9340893429149442 0.0
0.3822273842356539 1.647625881691675 0.0
5.916285335387544 0.2564903116750689 0.0
5.628860531758535 0.2582323053999509 0.0
5.380471017960128 0.2502349014663197 0.0
5.139244585769944 0.2549145445969738 0.0
2.686085237972266 0.8031095648160084 0.0
4.507599040026292 0.263176944655695 0.0
6.983755234374982 0.3380000000001097 0.0
9.720925955181613 0.6635813325201156 0.0
1.288006195687152 0.8759679848503046 0.0
9.20556379558699 0.6923669083350594 0.0
2.319913492084225 0.9512500928262699 0.0
8.73203612228155 0.6151508464420534 0.0
4.868679481352366 0.2526598053940744 0.0
4.10358044398202 0.3012437332986487 0.0
6.602422946953217 0.3126221952225479 0.0
2.534693527909069 0.3583319619586092 0.0
6.193332317503376 0.2894654215336858 0.0
0.8804088217382579 0.3735513844182569 0.0
0.7663303172393539 1.679065267574722 0.0
3.081211528283084 0.6968015573146217 0.0
1.241762689885858 1.521465072418641 0.0
1.573472750763779 0.3374689934575129 0.0
1.475107933015155 1.403918544935278 0.0
0.8212739503602162 1.195790902469637 0.0
4.681049549092561 0.3558177014380842 0.0
9.439519900118443 0.7366884444350511 0.0
2.201393787062887 0.3261463175998884 0.0
2.015369189818184 0.7109460688851087 0.0
8.32727069655695 0.6360373328685593 0.0
8.961488632119996 0.7119124617705204 0.0
9.22773266034565 0.3109430611770705 0.0
0.3000513553073295 1.178778127105867 0.0
1.91985473842554 1.233084801189704 0.0
8.749827252515535 0.3049638092131281 0.0
3.50551132590258 0.5576614504134195 0.0
3.040500962406976 0.290446660105673 0.0
9.72097519930939 0.3037986529514364 0.0
0.3073166349239687 0.3249300260882615 0.0
0.2948185331392187 0.7229775107826154 0.0
1.46029425821417 1.06552904833304 0.0
0.8085718129253527 0.673531272847494 0.0
7.913326191751847 0.5738936378911789 0.0
8.295349499871781 0.2556682497524391 0.0
4.31359646688283 0.3665214152100782 0.0
7.542842082022704 0.5249918217576657 0.0
1.058357552227335 1.116692590939024 0.0
2.214297272750292 1.159898327391242 0.0
2.901187336648686 0.8282146771898153 0.0
3.933498145061447 0.4325241689837319 0.0
7.956006969037984 0.2667411694088205 0.0
7.172393179434975 0.4835114022190097 0.0
1.440243631802057 0.6689433452646625 0.0
3.458541882144431 0.2581755850286561 0.0
5.791617360065465 0.3978542524532168 0.0
5.981529865241493 0.3900667299390458 0.0
1.083462543944253 0.7203994120564634 0.0
1.78518471978951 1.008552691762234 0.0
2.77360122246243 0.2689852172070111 0.0
2.565134389978369 0.9928826788184764 0.0
2.543046005790158 0.6034091352176242 0.0
3.293038780485421 0.6769811703257343 0.0
6.790787388653942 0.4353933509634578 0.0
1.140204059461831 0.2538227257007896 0.0
0.6242104065654487 0.2738473600765566 0.0
6.393430278703709 0.3766405270445946 0.0
8.533059390324546 0.6950580701614406 0.0
0.9961263693263854 1.612128843772703 0.0
1.697598586607002 0.5781950992180334 0.0
8.087930458724863 0.6517815437732153 0.0
0.2748906317360928 1.770749713716887 0.0
0.5785110002099415 1.757022387413085 0.0
5.550004842562332 0.3852675728674634 0.0
4.948161884155141 0.3480305424737933 0.0
1.741244734175577 1.381979611033466 0.0
5.312408927381063 0.3621256994047111 0.0
0.2492139438157334 1.453132031680879 0.0
7.597720022451821 0.2370268512906596 0.0
9.471021754366422 0.2472916581956264 0.0
7.714083843672875 0.600212897672991 0.0
4.520815862079482 0.3946753115680038 0.0
2.47356661122767 0.8007389356831706 0.0
7.325494311403363 0.528948935030723 0.0
7.147005275585743 0.2709670165999667 0.0
3.758046446289313 0.5474783841545341 0.0
3.893717059615281 0.1664960777568404 0.0
2.152835534199412 0.8614028741175742 0.0
8.995993312441625 0.1933410497113667 0.0
1.077676137392001 1.368204555688504 0.0
0.2429906229817933 0.9816066505657851 0.0
0.6261765586985547 1.180540007244081 0.0
9.81151801018651 0.816223424030724 0.0
0.6725442903064565 0.8425384371773644 0.0
1.74584086891446 0.2617492458514414 0.0
0.7667820686164357 1.440842670056678 0.0
8.539133693395232 0.1910926418035274 0.0
5.129145653242096 0.3632579123815574 0.0
6.816538849831732 0.2013284992826486 0.0
2.108503954619862 0.5359795950847274 0.0
6.933669557130528 0.4980836483776163 0.0
3.071406705674529 0.4919421055852253 0.0
2.001240035874449 0.2292738462614773 0.0
4.782473531509697 0.4061213127162872 0.0
0.5734126310178208 1.536352720889636 0.0
9.796714529589472 0.4898048068674991 0.0
5.678359041645315 0.373719883316694 0.0
5.427661572827738 0.3646059266294788 0.0
2.075214597532947 1.226969224366912 0.0
3.251521478555126 0.2637671977660283 0.0
2.722180837291864 0.9710783334409533 0.0
9.333262390342384 0.8479609887828539 0.0
1.367251332770493 0.2041553944563636 0.0
1.870721433742522 0.7905989208842599 0.0
1.387906762913351 1.555741687747287 0.0
9.559918612869 0.8444052974080497 0.0
9.286795039366257 0.4698254290795815 0.0
[...]
POINT_DATA 600

VECTORS Velocity float
0.0000000000000000 0.0000000000000000 0.0
0.0000000000000000 0.0000000000000000 0.0
0.0000000000000000 0.0000000000000000 0.0
0.0000000000000000 0.0000000000000000 0.0
0.0000000000000000 0.0000000000000000 0.0
0.0000000000000000 0.0000000000000000 0.0
0.0000000000000000 0.0000000000000000 0.0
0.0000000000000000 0.0000000000000000 0.0
0.0000000000000000 0.0000000000000000 0.0
0.0000000000000000 0.0000000000000000 0.0
0.0000000000000000 0.0000000000000000 0.0
0.0000000000000000 0.0000000000000000 0.0
0.0000000000000000 0.0000000000000000 0.0
0.0000000000000000 0.0000000000000000 0.0
0.0000000000000000 0.0000000000000000 0.0
0.0000000000000000 0.0000000000000000 0.0
0.0000000000000000 0.0000000000000000 0.0
0.0000000000000000 0.0000000000000000 0.0
0.0000000000000000 0.0000000000000000 0.0
0.0000000000000000 0.0000000000000000 0.0
0.0000000000000000 0.0000000000000000 0.0
0.0000000000000000 0.0000000000000000 0.0
0.0000000000000000 0.0000000000000000 0.0
0.0000000000000000 0.0000000000000000 0.0
0.0000000000000000 0.0000000000000000 0.0
0.0000000000000000 0.0000000000000000 0.0
0.0000000000000000 0.0000000000000000 0.0
0.0000000000000000 0.0000000000000000 0.0
0.0000000000000000 0.0000000000000000 0.0
0.0000000000000000 0.0000000000000000 0.0
0.0000000000000000 0.0000000000000000 0.0
0.0000000000000000 0.0000000000000000 0.0
0.0000000000000000 0.0000000000000000 0.0
0.0000000000000000 0.0000000000000000 0.0
0.0000000000000000 0.0000000000000000 0.0
0.0000000000000000 0.0000000000000000 0.0
0.0000000000000000 0.0000000000000000 0.0
0.0000000000000000 0.0000000000000000 0.0
0.0000000000000000 0.0000000000000000 0.0
0.0000000000000000 0.0000000000000000 0.0
0.0000000000000000 0.0000000000000000 0.0
0.0000000000000000 0.0000000000000000 0.0
0.8243195604839615 -0.1315192732672736 0.0
0.0000000000000000 0.0000000000000000 0.0
0.0000000000000000 0.0000000000000000 0.0
0.0000000000000000 0.0000000000000000 0.0
0.0000000000000000 0.0000000000000000 0.0
0.0000000000000000 0.0000000000000000 0.0
0.0000000000000000 0.0000000000000000 0.0
0.0000000000000000 0.0000000000000000 0.0
0.0000000000000000 0.0000000000000000 0.0
0.0000000000000000 0.0000000000000000 0.0
0.0000000000000000 0.0000000000000000 0.0
0.0000000000000000 0.0000000000000000 0.0
0.0000000000000000 0.0000000000000000 0.0
0.0000000000000000 0.0000000000000000 0.0
0.0000000000000000 0.0000000000000000 0.0
0.0000000000000000 0.0000000000000000 0.0
0.0000000000000000 0.0000000000000000 0.0
0.0000000000000000 0.0000000000000000 0.0
0.0000000000000000 0.0000000000000000 0.0
0.0000000000000000 0.0000000000000000 0.0
0.0000000000000000 0.0000000000000000 0.0
0.0000000000000000 0.0000000000000000 0.0
0.0000000000000000 0.0000000000000000 0.0
0.0000000000000000 0.0000000000000000 0.0
0.0000000000000000 0.0000000000000000 0.0
0.0000000000000000 0.0000000000000000 0.0
0.0000000000000000 0.0000000000000000 0.0
0.0000000000000000 0.0000000000000000 0.0
0.0000000000000000 0.0000000000000000 0.0
0.0000000000000000 0.0000000000000000 0.0
0.0000000000000000 0.0000000000000000 0.0
0.0000000000000000 0.0000000000000000 0.0
0.0000000000000000 0.0000000000000000 0.0
0.0000000000000000 0.0000000000000000 0.0
0.0000000000000000 0.0000000000000000 0.0
0.0000000000000000 0.0000000000000000 0.0
0.0000000000000000 0.0000000000000000 0.0
0.0000000000000000 0.0000000000000000 0.0
0.0000000000000000 0.0000000000000000 0.0
0.0000000000000000 0.0000000000000000 0.0
0.0000000000000000 0.0000000000000000 0.0
0.0000000000000000 0.0000000000000000 0.0
0.0000000000000000 0.0000000000000000 0.0
0.0000000000000000 0.0000000000000000 0.0
0.0000000000000000 0.0000000000000000 0.0
0.0000000000000000 0.0000000000000000 0.0
0.0000000000000000 0.0000000000000000 0.0
1.0000000000000000 0.0000000000000000 0.0
1.0000000000000000 0.0000000000000000 0.0
1.0000000000000000 0.0000000000000000 0.0
1.0000000000000000 0.0000000000000000 0.0
1.0000000000000000 0.0000000000000000 0.0
1.0000000000000000 0.0000000000000000 0.0
1.0000000000000000 0.0000000000000000 0.0
1.0000000000000000 0.0000000000000000 0.0
1.0000000000000000 0.0000000000000000 0.0
0.0000000000000000 0.0000000000000000 0.0
0.0000000000000000 0.0000000000000000 0.0
0.0000000000000000 0.0000000000000000 0.0
0.0000000000000000 0.0000000000000000 0.0
0.0000000000000000 0.0000000000000000 0.0
0.0000000000000000 0.0000000000000000 0.0
0.0000000000000000 0.0000000000000000 0.0
0.0000000000000000 0.0000000000000000 0.0
0.0000000000000000 0.0000000000000000 0.0
0.0000000000000000 0.0000000000000000 0.0
0.0000000000000000 0.0000000000000000 0.0
0.0000000000000000 0.0000000000000000 0.0
0.0000000000000000 0.0000000000000000 0.0
0.0000000000000000 0.0000000000000000 0.0
0.0000000000000000 0.0000000000000000 0.0
0.0000000000000000 0.0000000000000000 0.0
0.0000000000000000 0.0000000000000000 0.0
0.0000000000000000 0.0000000000000000 0.0
0.0000000000000000 0.0000000000000000 0.0
0.0000000000000000 0.0000000000000000 0.0
0.0000000000000000 0.0000000000000000 0.0
0.0000000000000000 0.0000000000000000 0.0
0.0000000000000000 0.0000000000000000 0.0
0.0000000000000000 0.0000000000000000 0.0
0.0000000000000000 0.0000000000000000 0.0
0.0000000000000000 0.0000000000000000 0.0
0.0000000000000000 0.0000000000000000 0.0
0.0000000000000000 0.0000000000000000 0.0
0.0000000000000000 0.0000000000000000 0.0
0.0000000000000000 0.0000000000000000 0.0
0.0000000000000000 0.0000000000000000 0.0
0.0000000000000000 0.0000000000000000 0.0
0.0000000000000000 0.0000000000000000 0.0
0.0000000000000000 0.0000000000000000 0.0
0.0000000000000000 0.0000000000000000 0.0
0.0000000000000000 0.0000000000000000 0.0
0.0000000000000000 0.0000000000000000 0.0
0.0000000000000000 0.0000000000000000 0.0
0.0000000000000000 0.0000000000000000 0.0
0.0000000000000000 0.0000000000000000 0.0
0.0000000000000000 0.0000000000000000 0.0
0.0000000000000000 0.0000000000000000 0.0
0.0000000000000000 0.0000000000000000 0.0
0.0000000000000000 0.0000000000000000 0.0
0.0000000000000000 0.0000000000000000 0.0
0.0000000000000000 0.0000000000000000 0.0
0.0000000000000000 0.0000000000000000 0.0
0.0000000000000000 0.0000000000000000 0.0
0.0000000000000000 0.0000000000000000 0.0
1.0711108461736043 -0.4633518351642155 0.0
0.9662060036579867 -0.1968567964494839 0.0
0.9839575822410251 -0.0300493967577885 0.0
1.0703575890781325 0.3854349075195678 0.0
1.3696668874566342 0.0042760509054947 0.0
1.4548194489083750 -0.0910159343808112 0.0
1.4596862261367090 -0.1829335416381303 0.0
1.2350424719092490 -0.1142912040052683 0.0
1.3330171591290174 -0.0786108541941217 0.0
1.5285899109458829 -0.1157608078518690 0.0
1.5883441263144955 -0.0298029975296507 0.0
1.5324625533065395 0.0201199973417846 0.0
1.5836133294064219 0.0973342055009236 0.0
1.5102861256729827 -0.1197964408541010 0.0
1.1870031720179679 0.0028938019510259 0.0
1.3530422061155043 -0.0980092025644302 0.0
1.2332380398869840 0.2376212408854609 0.0
1.5841494194450585 0.0721216520711932 0.0
1.5627900685441518 0.0088725948979740 0.0
1.1528252020617828 -0.0463094570991967 0.0
1.2579383411821219 -0.0213885936323312 0.0
1.1499622585615812 -0.0623280284389357 0.0
1.5273979132186173 -0.0565294577165950 0.0
1.5805541893303618 0.0548307771637125 0.0
1.2133690280140836 0.0943583612777673 0.0
1.1345481883075257 -0.2475489031190700 0.0
1.4957371304446427 0.0145746403229569 0.0
1.4957192442754614 -0.0177851630261954 0.0
1.5253273752428724 0.0355932032135760 0.0
1.5472803911868771 0.0132573444543644 0.0
1.3231380896142531 -0.1156874261154258 0.0
1.4872779006814651 0.0098428541917350 0.0
1.6541378846065304 0.0256675770229682 0.0
1.3600315526182825 0.1310504687218973 0.0
1.4451023275351520 -0.0451692008980730 0.0
1.3822406082849221 -0.0479780171992312 0.0
1.3339083451326788 -0.1414100552405101 0.0
1.5102184016111979 0.0927706916867979 0.0
1.5118708787681823 0.0023132324701204 0.0
1.6249477474841514 -0.1064725139429137 0.0
1.6830044700278830 -0.0381097663399902 0.0
1.2033502269421692 -0.0988422893459017 0.0
1.5893317759264329 -0.0202003396453417 0.0
0.9773700403137361 0.0617789025627065 0.0
0.8586430698190540 0.0348934581943215 0.0
1.3812518730318413 -0.0467967667311796 0.0
0.8779191490186022 0.0340056150333661 0.0
0.8631877558405223 -0.0522603191519208 0.0
0.9895031922272350 0.0504016303502189 0.0
1.3279647355180884 -0.0528898268085857 0.0
1.8004050401890399 -0.1359184735382113 0.0
1.2797098479065054 0.0005644576536319 0.0
0.9825133058129996 -0.0695841306440520 0.0
1.4495440725670221 -0.1113052490714512 0.0
1.3651664944869886 0.0412368982231836 0.0
1.3276805160126470 0.0012335165593526 0.0
1.2173865921857785 -0.0205244241916026 0.0
1.0857327067790938 -0.0746703318691545 0.0
1.0638607465898433 0.0243370226113218 0.0
1.2488434122004750 0.0242006553959896 0.0
1.4506620565145432 -0.0619285181180504 0.0
1.2281788596322032 -0.0299844324294099 0.0
1.2033400426081964 -0.2087158540268502 0.0
1.1252869867965767 0.3422894073388870 0.0
1.1011610068649007 0.2036771668555020 0.0
1.4414554996369038 -0.0760858643207059 0.0
1.3029733847831311 0.1008307338123830 0.0
1.3999696525590060 0.0536259558832235 0.0
1.2317215486526742 0.0221127544845765 0.0
1.7382916383538523 0.0681210107017858 0.0
1.4840220717827581 -0.0102558821293582 0.0
1.3912330475936876 -0.0583488824229770 0.0
0.9157260467299979 0.0175002506187353 0.0
1.0973480307442331 -0.0127943953538457 0.0
1.6052213231281991 -0.1340617715796275 0.0
1.3112324072648103 0.0490970977310454 0.0
1.4480341342283571 0.0718829762620583 0.0
1.3868046269564793 -0.0552429933341330 0.0
1.2413396415882145 -0.0435054270388896 0.0
1.5389563223073925 -0.0425198302638241 0.0
1.6093015486362203 0.0404308894318575 0.0
1.3819688287138510 0.0202410024660084 0.0
1.4171075749749027 -0.0888203893292898 0.0
1.0777680985181055 -0.0933769285129884 0.0
0.9745675714931941 0.0060254850979062 0.0
1.5124702392001390 -0.1790273009189503 0.0
1.2376164177686340 -0.0970358631574094 0.0
1.5845103255189146 0.0135134217968845 0.0
0.5875040024733759 0.0291653359088989 0.0
0.8632162974778366 0.1018680677633726 0.0
1.6626095356010666 0.0133855333575707 0.0
1.2477883362521178 -0.0066624863437824 0.0
0.8633387447868778 0.0313785461453031 0.0
1.3182865158084842 -0.1009982511198944 0.0
1.1916920360869141 0.0055702309669139 0.0
1.1066156104303138 -0.2809306661929993 0.0
0.8141349181759897 0.0371587388611856 0.0
1.5945261262013981 0.0114139963470588 0.0
1.6644865998857958 -0.0092566359838369 0.0
0.8353269505015389 0.1052599147139293 0.0
1.6077934235002418 0.0561090611681917 0.0
1.0902817607240367 -0.2201844407082439 0.0
1.2212169975081710 0.0324794126433595 0.0
1.0980081774009716 -0.0419814215758402 0.0
1.2307637798380395 0.0144090013525652 0.0
1.6699625593683574 -0.0217354901882864 0.0
1.4448500147902241 -0.2134515691687692 0.0
1.4480678718527802 0.0456337839524922 0.0
1.4482212537900869 0.0888893605633790 0.0
1.3488343319260736 -0.0517507262923063 0.0
0.7453917045177996 -0.0908263029415414 0.0
1.4434178618724893 -0.1544142857148899 0.0
0.6552260723489782 -0.0049237780602819 0.0
1.2369365176631824 -0.0591447646493819 0.0
1.0543787549901080 0.0179297795905411 0.0
1.2673221762357052 -0.0308103690668718 0.0
1.1679054125462662 0.2323096666267571 0.0
1.2943366441882687 0.0985055451667749 0.0
0.7116317885148411 -0.0003996036243013 0.0
1.2154313122678158 -0.0783603524236972 0.0
0.7061603853698565 0.0043673216100770 0.0
1.6561054846211170 0.0019160221027970 0.0
1.0150966022757768 0.0772662182293877 0.0
1.3433592603506403 -0.1311708216548152 0.0
1.1381449696113075 0.0014379346995052 0.0
1.4858994577846414 -0.1419501532984494 0.0
0.5586114411909799 -0.0446073135599781 0.0
1.1806013215927107 -0.0784345849684663 0.0
1.1831416807123409 -0.1204289381892644 0.0
1.2863711704190925 -0.1032420068410510 0.0
1.6370596473142816 -0.0138994798221987 0.0
1.6046405183505108 0.0502842060402147 0.0
0.8942159006023979 0.0783137362678699 0.0
1.2409737283459290 -0.0445346356379690 0.0
0.7458904186096390 0.1104040823964367 0.0
0.5927652820353658 -0.0027703382196227 0.0
0.4340338150503348 0.0226676110231758 0.0
1.4445099110317239 -0.1022009608852886 0.0
0.5676445230015529 0.1744455274125972 0.0
0.7004950012530901 -0.0057564107490996 0.0
1.5606294497865523 0.0249173427206526 0.0
1.2889586400158377 -0.0529160208404389 0.0
1.2091988101598334 -0.0403969266096994 0.0
1.5675944801269281 0.0686793845100654 0.0
1.4253586380750178 -0.0686004830110032 0.0
1.5715870740987621 0.0289659432707300 0.0
1.1828979478422759 0.0548724337185105 0.0
1.1132725463997324 -0.2554397991209212 0.0
1.2217737512871640 0.1786736055725901 0.0
1.1078862541937742 0.2383740738549494 0.0
1.0737879041458875 -0.0461942079384553 0.0
1.1845273916219494 0.0251008650103761 0.0
0.9319304788681810 0.0424588284177909 0.0
0.5887765442795636 0.1570830051098629 0.0
0.9917667721278912 -0.0116567150671977 0.0
1.4168191487034782 -0.0405962168830005 0.0
0.7659188163979571 0.0675568685403039 0.0
1.1955407412437018 0.0592755019787072 0.0
1.4625164080939055 -0.0692437647456964 0.0
0.8852977031029609 -0.0215049153142796 0.0
1.2623938776615629 0.0307103262683402 0.0
1.5255314191718372 0.0509654055432666 0.0
1.1901257942890173 -0.1920334494126546 0.0
1.3120000622566974 -0.1094566006270041 0.0
0.5252128498603750 0.1525681561088911 0.0
0.5238563870589740 0.1223762995751227 0.0
0.8397828670736984 -0.0136506265491067 0.0
1.4729928493067663 -0.0812711263192358 0.0
1.4539575785578529 -0.0856017365643934 0.0
0.5560301269552516 0.1755110319998615 0.0
0.6902985941404317 -0.0598678227682987 0.0
1.1213959716086681 0.0212351438686180 0.0
1.4645260244680969 -0.1142159363292368 0.0
0.9851700038815480 -0.0136693315427703 0.0
1.3187683092806182 0.0100930089499848 0.0
1.3933128465955893 -0.0933431671664588 0.0
0.9656135290294130 0.0082149459555645 0.0
0.8749331254209238 0.0705876460154977 0.0
1.3265283251903890 -0.0011683058258290 0.0
0.7689873196201279 -0.0260928718767192 0.0
1.5634953321341494 -0.0255535553753231 0.0
0.7660577460215042 0.0219724161371560 0.0
0.7726915896935062 -0.0297513724906154 0.0
1.2944634047141792 -0.0794580016108287 0.0
1.3947361371803912 -0.0123762810878742 0.0
0.9900975602241930 0.0113953544289863 0.0
0.5998525628716519 0.1953529390959865 0.0
0.9123911147199093 -0.0048011692840298 0.0
1.1514893919804678 -0.0528467647588981 0.0
0.8139870114494278 0.0978531413463945 0.0
1.1697354268340541 0.1470298043363778 0.0
1.0821537634023122 -0.0123662772251238 0.0
0.6809173071217377 0.0184163490956816 0.0
1.5250064949945401 -0.0211526894660549 0.0
0.9044632316507951 -0.0121686203943728 0.0
1.5488363041237048 -0.0261822262093407 0.0
0.4262614972377893 -0.0326434510144171 0.0
1.4611746973398014 -0.1705180039017194 0.0
1.6011138215231888 -0.0122029047995055 0.0
0.5510217020966773 0.1178442315847269 0.0
0.7791732228055788 -0.0246628992677605 0.0
1.5842850303230045 0.0680762070492818 0.0
0.9347891012930544 0.0945042970611331 0.0
1.5621815536618950 0.0576506921598456 0.0
0.9854595458128551 -0.0084906555735333 0.0
0.8002227105906856 -0.0597556235007139 0.0
0.6730528659732962 -0.0362809433239787 0.0
1.0205929537367486 -0.0256927105513566 0.0
1.0038190552081221 0.0297669764585488 0.0
1.4550054845105731 0.0138700860284692 0.0
0.5587964322929109 0.0373699037019111 0.0
0.8824196558896035 -0.0616043225910719 0.0
0.8521623499275391 0.0505458502023653 0.0
1.4234981187404012 0.0801989035396550 0.0
0.8012225269005068 -0.1997513637132114 0.0
0.8300089544250463 -0.0259572254445686 0.0
0.5228302792058571 -0.0487066490302067 0.0
1.0416409061690037 0.0285221500950906 0.0
0.7110125908399386 0.1992232255236323 0.0
0.9032554370974880 0.0437598900766397 0.0
1.2673981908348191 -0.1165986650486252 0.0
0.7626840824195585 -0.0187687145666327 0.0
0.9011561714211073 -0.0016294379958967 0.0
0.9897737564566046 -0.0081755759991661 0.0
0.7924176324210550 -0.0312004585899197 0.0
0.7693960673275599 -0.0444004323347785 0.0
1.4933875804198256 0.0252202275909177 0.0
0.8007479964950265 -0.0315461474189585 0.0
1.0390142784063616 -0.0847438840858120 0.0
0.8394614542242083 0.0547800193674289 0.0
1.2944579073878755 -0.0321550635095004 0.0
0.6328375070446431 -0.0193222530670614 0.0
0.3904818910398369 0.0054795032838479 0.0
1.1898686874547120 -0.1039297236788387 0.0
0.8367305825443702 0.1029356945539447 0.0
0.7951569744866236 -0.0163686324035546 0.0
0.9605396585836878 0.0560164727712678 0.0
1.3573712573112289 -0.0321579298554813 0.0
0.6540571096934215 -0.0213007776739857 0.0
1.2162853241930396 0.1884503338826588 0.0
1.5031713106011833 0.0066523908737957 0.0
0.7108342689876419 -0.0127438596409551 0.0
1.1434047739903546 0.0043304744873482 0.0
1.2766824589634393 -0.0682220288324768 0.0
1.0829403309844552 -0.0530808651381047 0.0
1.4447649413558770 -0.1268540201714027 0.0
0.4651339569783433 0.2146126226672571 0.0
1.7301986543427301 0.0213242355896031 0.0
1.3637080179309307 0.0355559341153677 0.0
0.5565665924764026 0.0508998774242143 0.0
1.4681443918026127 -0.1527849231922265 0.0
1.5148272579091244 -0.0884623073949155 0.0
0.6345948359069207 -0.0076516702342395 0.0
1.0255592055215721 -0.0169366995078184 0.0
0.6730452034982241 -0.0388342020443355 0.0
0.9512968208917748 -0.0773572578258149 0.0
0.7842232087293444 -0.0530820865626025 0.0
0.3970468506027128 0.2163661503272489 0.0
1.1198775887832519 0.2504012186009060 0.0
1.5950982351386689 0.0094786057204563 0.0
0.5797793440344104 0.2211310001386584 0.0
1.5776338769914096 -0.0631712207171603 0.0
1.7460623683573389 0.0986540699362856 0.0
0.5394751042043072 0.2156658367182274 0.0
1.4838667159413408 0.0466726321786336 0.0
1.4145940501730487 -0.1371164141508257 0.0
0.9241670698363477 0.2505911329867132 0.0
1.2882685306758344 -0.0207347199748319 0.0
1.3181440789284891 0.0218754740547843 0.0
0.7802775890609182 0.0898414129219425 0.0
1.3385595577590470 -0.1163866924273481 0.0
0.6955664420985059 -0.0566058045561202 0.0
0.5784487464497776 0.2002409972406198 0.0
0.4029071119750269 0.0203575534181253 0.0
1.2007438849113710 -0.0189539128712379 0.0
0.8838317359870708 -0.2761257470990247 0.0
1.4206488884657504 0.1018792335526364 0.0
1.2969033487999564 -0.1118830626907624 0.0
0.5596680829036255 -0.0119466266648176 0.0
0.5803728828111669 0.0489383098455289 0.0
0.6991928377709348 0.0180557588941706 0.0
1.1641796780460045 -0.0003137750362880 0.0
1.2028710775991536 0.3055556643025785 0.0
0.5625476891492037 -0.0327721390018183 0.0
1.1243942498766974 -0.0639106156033118 0.0
0.5925472406241509 0.0404731020813724 0.0
1.5695309455250175 0.0404921185663042 0.0
0.4540602683460245 0.2521170447330740 0.0
0.7405253864216929 -0.1222974835378259 0.0
1.5418247864474406 -0.0449641180046676 0.0
1.2527158385763750 0.0387818994834556 0.0
1.5332182989292504 -0.1403592330505569 0.0
0.6833230907676494 0.0059892581210630 0.0
0.8720743793913649 -0.0342246402635971 0.0
1.4588757764319007 -0.1040036616014176 0.0
1.4194678342264764 -0.0873923426311408 0.0
1.0261535206851387 0.0653602038509833 0.0
1.4502036256031257 0.0377625094817879 0.0
1.3412660809456174 -0.0678869531509585 0.0
1.2775287451107891 0.1586101070871570 0.0
0.8288171425444120 -0.0074543591947021 0.0
0.7444448705414907 -0.0212792742975459 0.0
0.6767441726587552 -0.0462760503018283 0.0
1.3201025870745082 -0.0672946595274637 0.0
1.3286846995490804 -0.0770682224553917 0.0
1.1476975844090580 0.1204626634034359 0.0
0.3327660299056744 0.0314409557820450 0.0
1.4387359763577425 -0.0921181817794018 0.0
0.2988714186892050 0.1114159799010747 0.0
0.6915282523036567 0.1212043156342799 0.0
1.0537403680591459 0.0451912557176200 0.0
0.5382586176797711 -0.1144421629381521 0.0
1.1461306013298382 -0.3173528155814170 0.0
1.3979903882040547 -0.0735959769545022 0.0
1.6094044086267933 -0.0188251378496263 0.0
0.7315211134091972 0.1117119781557784 0.0
1.5208957756500552 -0.0622657327415213 0.0
0.9319752385891171 -0.0331227013562863 0.0
1.4056651931516309 -0.0632628510201529 0.0
0.9337075471231429 -0.0255259870953231 0.0
0.4852620598379415 0.2129478988145970 0.0
0.9083461786010878 -0.0554172881873865 0.0
1.0263441159522044 -0.0642777369207484 0.0
1.5684984274728999 -0.0458082068292386 0.0