# vtk DataFile Version 3.0
LucasCarvalhoTCC Results
ASCII

DATASET POLYDATA
FIELD FieldData 1
TIME 1 1 double
2.9000000000000004

POINTS 600 float
0.0 2.0 0.0
0.25 1.989125 0.0
0.5 1.958 0.0
0.75 1.908875 0.0
1.0 1.844 0.0
1.25 1.765625 0.0
1.5 1.676 0.0
1.75 1.577375 0.0
2.0 1.472 0.0
2.25 1.362125 0.0
2.5 1.25 0.0
2.75 1.137875 0.0
3.0 1.028 0.0
3.25 0.922625 0.0
3.5 0.8240000000000001 0.0
3.75 0.734375 0.0
4.0 0.6560000000000001 0.0
4.25 0.5911249999999999 0.0
4.5 0.542 0.0
4.75 0.510875 0.0
5.0 0.5 0.0
5.25 0.5036250000000004 0.0
5.5 0.5140000000000002 0.0
5.75 0.5303750000000003 0.0
6.0 0.5519999999999996 0.0
6.25 0.578125 0.0
6.5 0.6080000000000005 0.0
6.75 0.6408749999999999 0.0
7.0 0.6760000000000002 0.0
7.25 0.7126249999999992 0.0
7.5 0.75 0.0
7.75 0.7873750000000004 0.0
8.0 0.8239999999999994 0.0
8.25 0.8591250000000001 0.0
8.5 0.8919999999999999 0.0
8.75 0.921875 0.0
9.0 0.9479999999999991 0.0
9.25 0.9696250000000011 0.0
9.5 0.9859999999999984 0.0
9.75 0.9963750000000013 0.0
10.0 1.0 0.0
0.0 0.0 0.0
10.0 0.0 0.0
0.124999999999674 1.994562500000014 0.0
0.3749999999999947 1.973562500000001 0.0
0.6249999999999918 1.933437500000002 0.0
0.874999999999979 1.876437500000006 0.0
1.124999999999963 1.804812500000012 0.0
1.374999999999944 1.72081250000002 0.0
1.624999999999985 1.626687500000006 0.0
1.874999999999953 1.52468750000002 0.0
2.124999999999936 1.417062500000028 0.0
2.374999999999952 1.306062500000022 0.0
2.624999999999919 1.193937500000036 0.0
2.87499999999992 1.082937500000035 0.0
3.124999999999946 0.9753125000000229 0.0
3.374999999999948 0.8733125000000204 0.0
3.624999999999972 0.77918750000001 0.0
3.874999999999963 0.6951875000000118 0.0
4.124999999999968 0.6235625000000082 0.0
4.394409538298571 0.5627485257243309 0.0
4.583333333333322 0.5316250000000015 0.0
4.666666666666668 0.5212499999999999 0.0
4.833333333333334 0.50725 0.0
4.916666666666667 0.503625 0.0
5.083333333333334 0.5012083333333335 0.0
5.166666666666666 0.502416666666667 0.0
5.333333333333334 0.5070833333333337 0.0
5.416666666666667 0.510541666666667 0.0
5.583333333333334 0.5194583333333336 0.0
5.666666666666666 0.5249166666666669 0.0
5.833333333333338 0.5375833333333339 0.0
5.916666666666661 0.544791666666666 0.0
6.105781577147724 0.5630541748119369 0.0
6.375 0.5930625000000003 0.0
6.624999999999988 0.6244374999999988 0.0
6.874999999999994 0.6584374999999991 0.0
7.125 0.6943124999999997 0.0
7.375 0.7313124999999996 0.0
7.624999999999994 0.7686874999999992 0.0
7.875 0.8056874999999999 0.0
8.125 0.8415624999999998 0.0
8.374999999999991 0.8755624999999989 0.0
8.624999999999995 0.9069374999999993 0.0
8.874999999999995 0.9349374999999991 0.0
9.125 0.9588125000000001 0.0
9.375 0.9778124999999998 0.0
9.625 0.9911874999999999 0.0
9.875 0.9981875000000007 0.0
0.0 1.799999999999167 0.0
0.0 1.6 0.0
0.0 1.400000000001387 0.0
0.0 1.200000000002774 0.0
0.0 1.000000000004117 0.0
0.0 0.8000000000033287 0.0
0.0 0.6000000000024965 0.0
0.0 0.4000000000016644 0.0
0.0 0.200000000000832 0.0
0.199999999999856 0.0 0.0
0.3999999999996677 0.0 0.0
0.5999999999994683 0.0 0.0
0.7999999999993286 0.0 0.0
0.9999999999991888 0.0 0.0
1.199999999999033 0.0 0.0
1.399999999998576 0.0 0.0
1.599999999997992 0.0 0.0
1.799999999997408 0.0 0.0
1.999999999996825 0.0 0.0
2.199999999996241 0.0 0.0
2.399999999995657 0.0 0.0
2.599999999995073 0.0 0.0
2.79999999999449 0.0 0.0
2.999999999993906 0.0 0.0
3.199999999993322 0.0 0.0
3.399999999992738 0.0 0.0
3.599999999992154 0.0 0.0
3.799999999991571 0.0 0.0
3.999999999991022 0.0 0.0
4.199999999991187 0.0 0.0
4.399999999991491 0.0 0.0
4.599999999991795 0.0 0.0
4.799999999992099 0.0 0.0
4.999999999992403 0.0 0.0
5.199999999992706 0.0 0.0
5.39999999999301 0.0 0.0
5.599999999993313 0.0 0.0
5.799999999993618 0.0 0.0
5.999999999993922 0.0 0.0
6.199999999994227 0.0 0.0
6.39999999999453 0.0 0.0
6.599999999994833 0.0 0.0
6.799999999995138 0.0 0.0
6.999999999995442 0.0 0.0
7.199999999995747 0.0 0.0
7.39999999999605 0.0 0.0
7.599999999996353 0.0 0.0
7.799999999996658 0.0 0.0
7.999999999996962 0.0 0.0
8.199999999997265 0.0 0.0
8.399999999997569 0.0 0.0
8.599999999997873 0.0 0.0
8.799999999998176 0.0 0.0
8.99999999999848 0.0 0.0
9.199999999998786 0.0 0.0
9.399999999999089 0.0 0.0
9.599999999999392 0.0 0.0
9.799999999999697 0.0 0.0
10.0 0.1999999999995579 0.0
10.0 0.3999999999989749 0.0
10.0 0.5999999999989468 0.0
10.0 0.7999999999994734 0.0
0.913963423524136 0.9126937851647636 0.0
1.629657910441747 0.8286436141773268 0.0
2.300136613917738 0.6369890708869279 0.0
0.5989085226155619 1.38125543468559 0.0
1.274155622640533 1.242773398230304 0.0
2.860215383945273 0.5217401976756945 0.0
9.469653920408135 0.4910067017840992 0.0
8.984679546317787 0.4696119782494839 0.0
8.499397693277212 0.4463630640980716 0.0
3.270918412356206 0.4522692359356972 0.0
1.223039611612243 0.5146439900227544 0.0
2.024812732135938 1.00818256045515 0.0
0.5365376864627701 0.5434316309416508 0.0
8.114834335444021 0.4602948767329583 0.0
7.742261962994204 0.4117304941858466 0.0
0.9443382341364558 1.456061359265878 0.0
1.665275621558886 1.201744468407863 0.0
1.89566112584099 0.4397284596316843 0.0
3.691409759982064 0.3560936332572802 0.0
7.368457390036411 0.3792926046732459 0.0
0.5071184951703254 0.9340893429149442 0.0
0.3822273842356539 1.647625881691675 0.0
5.916285335387544 0.2564903116750689 0.0
5.628860531758535 0.2582323053999509 0.0
5.380471017960128 0.2502349014663197 0.0
5.139244585769944 0.2549145445969738 0.0
2.686085237972266 0.8031095648160084 0.0
4.507599040026292 0.263176944655695 0.0
6.983755234374982 0.3380000000001097 0.0
9.720925955181613 0.6635813325201156 0.0
1.288006195687152 0.8759679848503046 0.0
9.20556379558699 0.6923669083350594 0.0
2.319913492084225 0.9512500928262699 0.0
8.73203612228155 0.6151508464420534 0.0
4.868679481352366 0.2526598053940744 0.0
4.10358044398202 0.3012437332986487 0.0
6.602422946953217 0.3126221952225479 0.0
2.534693527909069 0.3583319619586092 0.0
6.193332317503376 0.2894654215336858 0.0
0.8804088217382579 0.3735513844182569 0.0
0.7663303172393539 1.679065267574722 0.0
3.081211528283084 0.6968015573146217 0.0
1.241762689885858 1.521465072418641 0.0
1.573472750763779 0.3374689934575129 0.0
1.475107933015155 1.403918544935278 0.0
0.8212739503602162 1.195790902469637 0.0
4.681049549092561 0.3558177014380842 0.0
9.439519900118443 0.7366884444350511 0.0
2.201393787062887 0.3261463175998884 0.0
2.015369189818184 0.7109460688851087 0.0
8.32727069655695 0.6360373328685593 0.0
8.961488632119996 0.7119124617705204 0.0
9.22773266034565 0.3109430611770705 0.0
0.3000513553073295 1.178778127105867 0.0
1.91985473842554 1.233084801189704 0.0
8.749827252515535 0.3049638092131281 0.0
3.50551132590258 0.5576614504134195 0.0
3.040500962406976 0.290446660105673 0.0
9.72097519930939 0.3037986529514364 0.0
0.3073166349239687 0.3249300260882615 0.0
0.2948185331392187 0.7229775107826154 0.0
1.46029425821417 1.06552904833304 0.0
0.8085718129253527 0.673531272847494 0.0
7.913326191751847 0.5738936378911789 0.0
8.295349499871781 0.2556682497524391 0.0
4.31359646688283 0.3665214152100782 0.0
7.542842082022704 0.5249918217576657 0.0
1.058357552227335 1.116692590939024 0.0
2.214297272750292 1.159898327391242 0.0
2.901187336648686 0.8282146771898153 0.0
3.933498145061447 0.4325241689837319 0.0
7.956006969037984 0.2667411694088205 0.0
7.172393179434975 0.4835114022190097 0.0
1.440243631802057 0.6689433452646625 0.0
3.458541882144431 0.2581755850286561 0.0
5.791617360065465 0.3978542524532168 0.0
5.981529865241493 0.3900667299390458 0.0
1.083462543944253 0.7203994120564634 0.0
1.78518471978951 1.008552691762234 0.0
2.77360122246243 0.2689852172070111 0.0
2.565134389978369 0.9928826788184764 0.0
2.543046005790158 0.6034091352176242 0.0
3.293038780485421 0.6769811703257343 0.0
6.790787388653942 0.4353933509634578 0.0
1.140204059461831 0.2538227257007896 0.0
0.6242104065654487 0.2738473600765566 0.0
6.393430278703709 0.3766405270445946 0.0
8.533059390324546 0.6950580701614406 0.0
0.9961263693263854 1.612128843772703 0.0
1.697598586607002 0.5781950992180334 0.0
8.087930458724863 0.6517815437732153 0.0
0.2748906317360928 1.770749713716887 0.0
0.5785110002099415 1.757022387413085 0.0
5.550004842562332 0.3852675728674634 0.0
4.948161884155141 0.3480305424737933 0.0
1.741244734175577 1.381979611033466 0.0
5.312408927381063 0.3621256994047111 0.0
0.2492139438157334 1.453132031680879 0.0
7.597720022451821 0.2370268512906596 0.0
9.471021754366422 0.2472916581956264 0.0
7.714083843672875 0.600212897672991 0.0
4.520815862079482 0.3946753115680038 0.0
2.47356661122767 0.8007389356831706 0.0
7.325494311403363 0.528948935030723 0.0
7.147005275585743 0.2709670165999667 0.0
3.758046446289313 0.5474783841545341 0.0
3.893717059615281 0.1664960777568404 0.0
2.152835534199412 0.8614028741175742 0.0
8.995993312441625 0.1933410497113667 0.0
1.077676137392001 1.368204555688504 0.0
0.2429906229817933 0.9816066505657851 0.0
0.6261765586985547 1.180540007244081 0.0
9.81151801018651 0.816223424030724 0.0
0.6725442903064565 0.8425384371773644 0.0
1.74584086891446 0.2617492458514414 0.0
0.7667820686164357 1.440842670056678 0.0
8.539133693395232 0.1910926418035274 0.0
5.129145653242096 0.3632579123815574 0.0
6.816538849831732 0.2013284992826486 0.0
2.108503954619862 0.5359795950847274 0.0
6.933669557130528 0.4980836483776163 0.0
3.071406705674529 0.4919421055852253 0.0
2.001240035874449 0.2292738462614773 0.0
4.782473531509697 0.4061213127162872 0.0
0.5734126310178208 1.536352720889636 0.0
9.796714529589472 0.4898048068674991 0.0
5.678359041645315 0.373719883316694 0.0
5.427661572827738 0.3646059266294788 0.0
2.075214597532947 1.226969224366912 0.0
3.251521478555126 0.2637671977660283 0.0
2.722180837291864 0.9710783334409533 0.0
9.333262390342384 0.8479609887828539 0.0
1.367251332770493 0.2041553944563636 0.0
1.870721433742522 0.7905989208842599 0.0
1.387906762913351 1.555741687747287 0.0
9.559918612869 0.8444052974080497 0.0
9.286795039366257 0.4698254290795815 0.0
[...]
POINT_DATA 600

VECTORS Velocity float
0.0000000000000000 0.0000000000000000 0.0
0.0000000000000000 0.0000000000000000 0.0
0.0000000000000000 0.0000000000000000 0.0
0.0000000000000000 0.0000000000000000 0.0
0.0000000000000000 0.0000000000000000 0.0
0.0000000000000000 0.0000000000000000 0.0
0.0000000000000000 0.0000000000000000 0.0
0.0000000000000000 0.0000000000000000 0.0
0.0000000000000000 0.0000000000000000 0.0
0.0000000000000000 0.0000000000000000 0.0
0.0000000000000000 0.0000000000000000 0.0
0.0000000000000000 0.0000000000000000 0.0
0.0000000000000000 0.0000000000000000 0.0
0.0000000000000000 0.0000000000000000 0.0
0.0000000000000000 0.0000000000000000 0.0
0.0000000000000000 0.0000000000000000 0.0
0.0000000000000000 0.0000000000000000 0.0
0.0000000000000000 0.0000000000000000 0.0
0.0000000000000000 0.0000000000000000 0.0
0.0000000000000000 0.0000000000000000 0.0
0.0000000000000000 0.0000000000000000 0.0
0.0000000000000000 0.0000000000000000 0.0
0.0000000000000000 0.0000000000000000 0.0
0.0000000000000000 0.0000000000000000 0.0
0.0000000000000000 0.0000000000000000 0.0
0.0000000000000000 0.0000000000000000 0.0
0.0000000000000000 0.0000000000000000 0.0
0.0000000000000000 0.0000000000000000 0.0
0.0000000000000000 0.0000000000000000 0.0
0.0000000000000000 0.0000000000000000 0.0
0.0000000000000000 0.0000000000000000 0.0
0.0000000000000000 0.0000000000000000 0.0
0.0000000000000000 0.0000000000000000 0.0
0.0000000000000000 0.0000000000000000 0.0
0.0000000000000000 0.0000000000000000 0.0
0.0000000000000000 0.0000000000000000 0.0
0.0000000000000000 0.0000000000000000 0.0
0.0000000000000000 0.0000000000000000 0.0
0.0000000000000000 0.0000000000000000 0.0
0.0000000000000000 0.0000000000000000 0.0
0.0000000000000000 0.0000000000000000 0.0
0.0000000000000000 0.0000000000000000 0.0
0.8243000910413831 -0.1315395196585630 0.0
0.0000000000000000 0.0000000000000000 0.0
0.0000000000000000 0.0000000000000000 0.0
0.0000000000000000 0.0000000000000000 0.0
0.0000000000000000 0.0000000000000000 0.0
0.0000000000000000 0.0000000000000000 0.0
0.0000000000000000 0.0000000000000000 0.0
0.0000000000000000 0.0000000000000000 0.0
0.0000000000000000 0.0000000000000000 0.0
0.0000000000000000 0.0000000000000000 0.0
0.0000000000000000 0.0000000000000000 0.0
0.0000000000000000 0.0000000000000000 0.0
0.0000000000000000 0.0000000000000000 0.0
0.0000000000000000 0.0000000000000000 0.0
0.0000000000000000 0.0000000000000000 0.0
0.0000000000000000 0.0000000000000000 0.0
0.0000000000000000 0.0000000000000000 0.0
0.0000000000000000 0.0000000000000000 0.0
0.0000000000000000 0.0000000000000000 0.0
0.0000000000000000 0.0000000000000000 0.0
0.0000000000000000 0.0000000000000000 0.0
0.0000000000000000 0.0000000000000000 0.0
0.0000000000000000 0.0000000000000000 0.0
0.0000000000000000 0.0000000000000000 0.0
0.0000000000000000 0.0000000000000000 0.0
0.0000000000000000 0.0000000000000000 0.0
0.0000000000000000 0.0000000000000000 0.0
0.0000000000000000 0.0000000000000000 0.0
0.0000000000000000 0.0000000000000000 0.0
0.0000000000000000 0.0000000000000000 0.0
0.0000000000000000 0.0000000000000000 0.0
0.0000000000000000 0.0000000000000000 0.0
0.0000000000000000 0.0000000000000000 0.0
0.0000000000000000 0.0000000000000000 0.0
0.0000000000000000 0.0000000000000000 0.0
0.0000000000000000 0.0000000000000000 0.0
0.0000000000000000 0.0000000000000000 0.0
0.0000000000000000 0.0000000000000000 0.0
0.0000000000000000 0.0000000000000000 0.0
0.0000000000000000 0.0000000000000000 0.0
0.0000000000000000 0.0000000000000000 0.0
0.0000000000000000 0.0000000000000000 0.0
0.0000000000000000 0.0000000000000000 0.0
0.0000000000000000 0.0000000000000000 0.0
0.0000000000000000 0.0000000000000000 0.0
0.0000000000000000 0.0000000000000000 0.0
0.0000000000000000 0.0000000000000000 0.0
1.0000000000000000 0.0000000000000000 0.0
1.0000000000000000 0.0000000000000000 0.0
1.0000000000000000 0.0000000000000000 0.0
1.0000000000000000 0.0000000000000000 0.0
1.0000000000000000 0.0000000000000000 0.0
1.0000000000000000 0.0000000000000000 0.0
1.0000000000000000 0.0000000000000000 0.0
1.0000000000000000 0.0000000000000000 0.0
1.0000000000000000 0.0000000000000000 0.0
0.0000000000000000 0.0000000000000000 0.0
0.0000000000000000 0.0000000000000000 0.0
0.0000000000000000 0.0000000000000000 0.0
0.0000000000000000 0.0000000000000000 0.0
0.0000000000000000 0.0000000000000000 0.0
0.0000000000000000 0.0000000000000000 0.0
0.0000000000000000 0.0000000000000000 0.0
0.0000000000000000 0.0000000000000000 0.0
0.0000000000000000 0.0000000000000000 0.0
0.0000000000000000 0.0000000000000000 0.0
0.0000000000000000 0.0000000000000000 0.0
0.0000000000000000 0.0000000000000000 0.0
0.0000000000000000 0.0000000000000000 0.0
0.0000000000000000 0.0000000000000000 0.0
0.0000000000000000 0.0000000000000000 0.0
0.0000000000000000 0.0000000000000000 0.0
0.0000000000000000 0.0000000000000000 0.0
0.0000000000000000 0.0000000000000000 0.0
0.0000000000000000 0.0000000000000000 0.0
0.0000000000000000 0.0000000000000000 0.0
0.0000000000000000 0.0000000000000000 0.0
0.0000000000000000 0.0000000000000000 0.0
0.0000000000000000 0.0000000000000000 0.0
0.0000000000000000 0.0000000000000000 0.0
0.0000000000000000 0.0000000000000000 0.0
0.0000000000000000 0.0000000000000000 0.0
0.0000000000000000 0.0000000000000000 0.0
0.0000000000000000 0.0000000000000000 0.0
0.0000000000000000 0.0000000000000000 0.0
0.0000000000000000 0.0000000000000000 0.0
0.0000000000000000 0.0000000000000000 0.0
0.0000000000000000 0.0000000000000000 0.0
0.0000000000000000 0.0000000000000000 0.0
0.0000000000000000 0.0000000000000000 0.0
0.0000000000000000 0.0000000000000000 0.0
0.0000000000000000 0.0000000000000000 0.0
0.0000000000000000 0.0000000000000000 0.0
0.0000000000000000 0.0000000000000000 0.0
0.0000000000000000 0.0000000000000000 0.0
0.0000000000000000 0.0000000000000000 0.0
0.0000000000000000 0.0000000000000000 0.0
0.0000000000000000 0.0000000000000000 0.0
0.0000000000000000 0.0000000000000000 0.0
0.0000000000000000 0.0000000000000000 0.0
0.0000000000000000 0.0000000000000000 0.0
0.0000000000000000 0.0000000000000000 0.0
0.0000000000000000 0.0000000000000000 0.0
0.0000000000000000 0.0000000000000000 0.0
0.0000000000000000 0.0000000000000000 0.0
1.0711132958304299 -0.4634913487935598 0.0
0.9661632625994316 -0.1971039986504508 0.0
0.9839783481562372 -0.0302258718947067 0.0
1.0703582957727873 0.3854655230629553 0.0
1.3753630896598055 0.0045300588439129 0.0
1.4608755706048417 -0.0924021811021532 0.0
1.4621703893894509 -0.1843282049269393 0.0
1.2351878093610873 -0.1161973672209268 0.0
1.3336210762043099 -0.0778922299953071 0.0
1.5295268635968255 -0.1160323483117641 0.0
1.5888108124648097 -0.0299179860428325 0.0
1.5327102061784075 0.0202088682323985 0.0
1.5836709362887476 0.0975454375438617 0.0
1.5104009928058768 -0.1197153539484906 0.0
1.1847612932633904 0.0031460624463875 0.0
1.3548742155430678 -0.0977023034233365 0.0
1.2332628964194989 0.2400055475331380 0.0
1.5842315819664370 0.0722008317443950 0.0
1.5628834745013291 0.0086907778872042 0.0
1.1500124656267245 -0.0455527879023849 0.0
1.2565957400572003 -0.0202905922804673 0.0
1.1480082393579625 -0.0640705877434952 0.0
1.5273388982333860 -0.0565793817820977 0.0
1.5805317010945077 0.0549071101630432 0.0
1.2162395093285543 0.0951377912065767 0.0
1.1326630034807945 -0.2492102054202463 0.0
1.4956972257410694 0.0145403923554459 0.0
1.4956699274562071 -0.0177692155148077 0.0
1.5252885418438076 0.0356008648511275 0.0
1.5472424355234460 0.0132571493327295 0.0
1.3231368209171281 -0.1152383138884482 0.0
1.4872697311830916 0.0098645516630518 0.0
1.6541284346436440 0.0256999696111162 0.0
1.3603004755594372 0.1310413529941737 0.0
1.4517373865035310 -0.0455575822399205 0.0
1.3825359706951561 -0.0479938815804013 0.0
1.3348270269053251 -0.1409377950877931 0.0
1.5104941735312154 0.0928077427851234 0.0
1.5118477154821910 0.0023313260135019 0.0
1.6249403983160895 -0.1065059426054475 0.0
1.6830036160372703 -0.0380979281951679 0.0
1.2028024793865231 -0.0998399841577106 0.0
1.5893254944178201 -0.0202236106983795 0.0
0.9737297515056786 0.0627504607553022 0.0
0.8544928754795350 0.0355530063836495 0.0
1.3813645997273463 -0.0463282616407300 0.0
0.8736066323269699 0.0357289116992258 0.0
0.8590400037401332 -0.0525326052018962 0.0
0.9857859171328914 0.0519376116166478 0.0
1.3316020288440766 -0.0537111981408058 0.0
1.8004299619295834 -0.1359226414908447 0.0
1.2798403616770888 0.0005787861639198 0.0
0.9807329916474291 -0.0699624303530959 0.0
1.4534320439430943 -0.1129479490892798 0.0
1.3651360256234921 0.0413418766385569 0.0
1.3279179412461888 0.0011758342735402 0.0
1.2169961944016245 -0.0204844889626757 0.0
1.0865932212343123 -0.0766923472591631 0.0
1.0610246883954462 0.0257045646644455 0.0
1.2486355442924022 0.0243269272490641 0.0
1.4507652793971759 -0.0619127283320618 0.0
1.2281406230636001 -0.0300923209290079 0.0
1.2031171061219759 -0.2089416745360901 0.0
1.1246706965970810 0.3433238328481712 0.0
1.1016257939880756 0.2050252054840801 0.0
1.4460406067058893 -0.0768572117722534 0.0
1.3045991573209217 0.1029599582397147 0.0
1.3998775631124725 0.0535351591147804 0.0
1.2317566368014619 0.0221913703940737 0.0
1.7382906416840047 0.0681319072025555 0.0
1.4841496730266834 -0.0103328259410255 0.0
1.3962320839690441 -0.0586871644401309 0.0
0.9133263575313859 0.0190028147889604 0.0
1.0967326647008875 -0.0124180449716663 0.0
1.6052505597494739 -0.1341286900197146 0.0
1.3113436192225607 0.0490626744181140 0.0
1.4480939840236347 0.0719495654493300 0.0
1.3900118342580108 -0.0563291817287979 0.0
1.2412272226966103 -0.0434995291357378 0.0
1.5390639293067463 -0.0425333029627775 0.0
1.6093504244805015 0.0404105743361994 0.0
1.3860917590213804 0.0209194471239134 0.0
1.4206112751965347 -0.0892333151780883 0.0
1.0773342247171798 -0.0938171897958635 0.0
0.9732392787590288 0.0074082295557177 0.0
1.5144633910209298 -0.1800463652844210 0.0
1.2376239472786155 -0.0969001518511767 0.0
1.5845173802550339 0.0135152113739335 0.0
0.5832535042053671 0.0293363137049594 0.0
0.8605492347603594 0.1026958225435977 0.0
1.6626080051219190 0.0133824649211953 0.0
1.2478938826929757 -0.0066034681240130 0.0
0.8589072637228691 0.0327634553466485 0.0
1.3196356548178192 -0.1024294939963865 0.0
1.1915245463590727 0.0055763487540327 0.0
1.1057339412432967 -0.2815636203740366 0.0
0.8109907105500367 0.0371565517463877 0.0
1.5946014878237307 0.0114289814211724 0.0
1.6645274693753656 -0.0092396929405217 0.0
0.8317506928180312 0.1067697772662135 0.0
1.6078520111514245 0.0561136318178529 0.0
1.0900548751119645 -0.2226838009564272 0.0
1.2211102846390594 0.0324326128668838 0.0
1.0975137135214152 -0.0420816500323458 0.0
1.2307461120942584 0.0143236337618557 0.0
1.6699841911445126 -0.0217211941084041 0.0
1.4466565436759087 -0.2137267780087703 0.0
1.4481761246955496 0.0456944988299377 0.0
1.4481768802917936 0.0889383777398946 0.0
1.3489522443165656 -0.0518037643770569 0.0
0.7453553009711994 -0.0908464695037045 0.0
1.4470138147433027 -0.1549959543048872 0.0
0.6548752869353015 -0.0048563453973717 0.0
1.2352831334427934 -0.0581247531634356 0.0
1.0551081158068747 0.0173915471222230 0.0
1.2704904304243589 -0.0318986767045839 0.0
1.1679446792291792 0.2323420081285721 0.0
1.2980630885504449 0.0996561598801516 0.0
0.7077095923470574 -0.0010884492543064 0.0
1.2137909456840501 -0.0787745513644393 0.0
0.7060288815753301 0.0044226748070676 0.0
1.6561718955731173 0.0019158166538980 0.0
1.0150895067482335 0.0772663644759983 0.0
1.3443243624006698 -0.1327622708231365 0.0
1.1381594299946887 0.0014516817006047 0.0
1.4862779927315775 -0.1419468704135438 0.0
0.5562792020886260 -0.0447811410307315 0.0
1.1806320262743528 -0.0784331670357662 0.0
1.1808366381944710 -0.1219972434290873 0.0
1.2864933011687392 -0.1034469014645229 0.0
1.6371402997991420 -0.0138917359830910 0.0
1.6046937378181638 0.0503053312599942 0.0
0.8913739929003057 0.0796231071429552 0.0
1.2409115500684478 -0.0445400951982654 0.0
0.7451141093256313 0.1110888939738175 0.0
0.5926469369251914 -0.0027517389298669 0.0
0.4307584602395935 0.0224971917304701 0.0
1.4497668238716876 -0.1037277826056679 0.0
0.5647910552581088 0.1754401537842008 0.0
0.7004256247056577 -0.0057344831509508 0.0
1.5610327799114394 0.0250006254304353 0.0
1.2882443237414838 -0.0525029855103549 0.0
1.2092913833111785 -0.0404507142307340 0.0
1.5676558791550177 0.0688463786082347 0.0
1.4305330619875514 -0.0686010468458560 0.0
1.5716078680920724 0.0289407241675437 0.0
1.1830654396984257 0.0548263862706809 0.0
1.1127377525569402 -0.2565583199462367 0.0
1.2232725261624793 0.1803024881819718 0.0
1.1077584584340967 0.2391627334875131 0.0
1.0737868337882344 -0.0461881963669220 0.0
1.1845241024949185 0.0250853780215671 0.0
0.9319328098939543 0.0424727542466340 0.0
0.5870220724636556 0.1580947401028844 0.0
0.9917702939962169 -0.0116542199239662 0.0
1.4233464812220551 -0.0409369583289338 0.0
0.7658960762623849 0.0675567835932775 0.0
1.1933387449206281 0.0604042783160395 0.0
1.4689286788992286 -0.0702456389229746 0.0
0.8836587292502861 -0.0219980041780744 0.0
1.2623940227314854 0.0306062581356942 0.0
1.5256400050130434 0.0510685012309713 0.0
1.1892765283705684 -0.1946348796145031 0.0
1.3124857517333350 -0.1102584197816307 0.0
0.5223612264558672 0.1535774765123378 0.0
0.5209256848680951 0.1231651490049577 0.0
0.8397575475012220 -0.0136680164589930 0.0
1.4735648419957321 -0.0811159346525235 0.0
1.4595453839561059 -0.0867782822426102 0.0
0.5534920165776104 0.1766614914098787 0.0
0.6888060464204291 -0.0603902075765304 0.0
1.1214029810641275 0.0212502504206469 0.0
1.4656970520626964 -0.1151878257928550 0.0
0.9853101398906714 -0.0136734384051761 0.0
1.3237159554949820 0.0099927580281256 0.0
1.3966020917966178 -0.0952015250951417 0.0
0.9656890153995332 0.0082101814756764 0.0
0.8750256250973101 0.0705560172645940 0.0
1.3265326388346559 -0.0011857146341080 0.0
0.7688762424322670 -0.0260707151390351 0.0
1.5634940792198011 -0.0255478682819227 0.0
0.7659980826286494 0.0219811382314941 0.0
0.7726142829115829 -0.0297706256614918 0.0
1.2949289582432568 -0.0797767771984570 0.0
1.3983782667558304 -0.0124587225965683 0.0
0.9900036575060608 0.0114435348639863 0.0
0.5973993720907883 0.1963194622296332 0.0
0.9124148847872277 -0.0048050931745801 0.0
1.1488754416042197 -0.0534597051251717 0.0
0.8135995237575059 0.0982526586639698 0.0
1.1682038132605896 0.1486634679146149 0.0
1.0789467524387921 -0.0107924067660837 0.0
0.6809552705493324 0.0184246684471580 0.0
1.5255052049780551 -0.0211863046033576 0.0
0.9043925919277178 -0.0121799891533541 0.0
1.5492727414972149 -0.0263296075627062 0.0
0.4234836634514478 -0.0322455599093537 0.0
1.4639338579720618 -0.1709647839418966 0.0
1.6017578096475087 -0.0121736592094088 0.0
0.5482386662663008 0.1180418901972124 0.0
0.7791258312758306 -0.0246606388913537 0.0
1.5844012428045695 0.0680229138071457 0.0
0.9346702822954829 0.0948061392430199 0.0
1.5622532490130712 0.0577920042285660 0.0
0.9813106646811652 -0.0070166612968703 0.0
0.8001376288780541 -0.0598103906962741 0.0
0.6720879394700544 -0.0368172344131600 0.0
1.0206599369658131 -0.0256900757187105 0.0
1.0038900132559858 0.0297701002994496 0.0
1.4549635350476822 0.0138871599290814 0.0
0.5587250011786365 0.0373839794496432 0.0
0.8825373083071124 -0.0616163201602983 0.0
0.8521879272979617 0.0505150006265521 0.0
1.4234501827543320 0.0803011587574572 0.0
0.8011090366320338 -0.1998235841872159 0.0
0.8300452428101005 -0.0259358179873926 0.0
0.5227285806548250 -0.0487141745904724 0.0
1.0382273875234034 0.0298714752547461 0.0
0.7099495111123777 0.1999674947630034 0.0
0.9032986983350508 0.0437706960939421 0.0
1.2676460113425183 -0.1157152309743111 0.0
0.7625383660377124 -0.0187971975132333 0.0
0.9011357268859840 -0.0016161423150616 0.0
0.9857286419282376 -0.0073214216402971 0.0
0.7924591836926241 -0.0312465951635126 0.0
0.7694661841183217 -0.0443595258587045 0.0
1.4937553247620847 0.0251847309730464 0.0
0.8007590502059579 -0.0315014222176182 0.0
1.0390535006463997 -0.0860250758489086 0.0
0.8394524327803478 0.0547816747670782 0.0
1.2938047046256429 -0.0309749075666519 0.0
0.6326028039910720 -0.0194424148104981 0.0
0.3875813343226431 0.0053564287844161 0.0
1.1911558147946806 -0.1063687252719845 0.0
0.8367758202842199 0.1029798450700307 0.0
0.7951625679446481 -0.0163649874314022 0.0
0.9606076510790676 0.0559796263633950 0.0
1.3627282320376946 -0.0326387724698082 0.0
0.6539908996531482 -0.0213431060875443 0.0
1.2164280270415604 0.1884396189858626 0.0
1.5034159226167234 0.0067675468899440 0.0
0.7108346590862303 -0.0127510942345574 0.0
1.1434323825153314 0.0043267337358877 0.0
1.2778925483480021 -0.0693915331498341 0.0
1.0799002786276606 -0.0537334414601746 0.0
1.4493925158489200 -0.1277285486723141 0.0
0.4630385389380102 0.2154583302220869 0.0
1.7302456727673676 0.0213311036389419 0.0
1.3681685108082597 0.0365111941752617 0.0
0.5561813854224719 0.0509063821792632 0.0
1.4714271483992825 -0.1541362439723827 0.0
1.5155069459061867 -0.0882351899403300 0.0
0.6341782603342208 -0.0076917807641643 0.0
1.0257278616904846 -0.0176591400881789 0.0
0.6730512237001069 -0.0388315925904243 0.0
0.9512899197224236 -0.0773550938374697 0.0
0.7842198914000010 -0.0530768419394027 0.0
0.3950858168708676 0.2170074017964046 0.0
1.1184673657526114 0.2523102280136276 0.0
1.5950917703636172 0.0094392128746817 0.0
0.5792524267986456 0.2214734623552629 0.0
1.5776826850314718 -0.0632826911238382 0.0
1.7460718939314956 0.0986861963105919 0.0
0.5381127441214223 0.2164271038262813 0.0
1.4839386118307289 0.0468303612568537 0.0
1.4147670748472454 -0.1368828558495110 0.0
0.9240145036785095 0.2507244641141619 0.0
1.2880121554183923 -0.0208010235733507 0.0
1.3180003682453056 0.0220043601533774 0.0
0.7802807043559562 0.0898384611801379 0.0
1.3384438332413058 -0.1166298286272312 0.0
0.6954553701808871 -0.0566057088352701 0.0
0.5762782641209637 0.2010927020149178 0.0
0.4012816538974657 0.0201356208144060 0.0
1.1991126168824195 -0.0181085778467817 0.0
0.8837359683842466 -0.2761942682948387 0.0
1.4209410563045142 0.1019345377420275 0.0
1.2969927744511454 -0.1122622506826004 0.0
0.5595702344706285 -0.0119612170344734 0.0
0.5801927455570870 0.0489860233853875 0.0
0.6991615728350145 0.0180609745393514 0.0
1.1665199108543902 -0.0013133441184685 0.0
1.2027432481482478 0.3074282751207649 0.0
0.5622796886558222 -0.0326999142984236 0.0
1.1224332174125764 -0.0649451758293405 0.0
0.5925012904075154 0.0404556632059002 0.0
1.5695105372470324 0.0405143396889661 0.0
0.4531169609363924 0.2526749538286296 0.0
0.7402575876673945 -0.1223534486253360 0.0
1.5419170056550440 -0.0449964549613900 0.0
1.2525053086644222 0.0389051959426883 0.0
1.5347784164523599 -0.1407270910324312 0.0
0.6832807036020506 0.0059915946276534 0.0
0.8721145412063288 -0.0342321591541581 0.0
1.4590326245445859 -0.1039654324776220 0.0
1.4239109545964648 -0.0886586930359033 0.0
1.0264736326646935 0.0655977586721991 0.0
1.4503171676271489 0.0378187593699883 0.0
1.3429029445619751 -0.0671480625610487 0.0
1.2786471716163135 0.1606691664780360 0.0
0.8242457466793759 -0.0073923193344138 0.0
0.7444909616224548 -0.0212795989870339 0.0
0.6768131249953852 -0.0462767248757268 0.0
1.3203966236523366 -0.0668257451451270 0.0
1.3296915808736240 -0.0791561622401339 0.0
1.1495646248644082 0.1209966212855775 0.0
0.3311158759286574 0.0315970564987679 0.0
1.4388300393697859 -0.0919911549427993 0.0
0.2975822440316293 0.1113579657376182 0.0
0.6916027217986581 0.1211891006927221 0.0
1.0507003216353124 0.0467000753469707 0.0
0.5382428833124129 -0.1144292972582299 0.0
1.1460672721715102 -0.3175392078960930 0.0
1.4007443119717105 -0.0735895875433974 0.0
1.6093962075362143 -0.0188408291716763 0.0
0.7315345503039479 0.1117066262217441 0.0
1.5208259483414490 -0.0623219583364701 0.0
0.9320806894613622 -0.0331211391563771 0.0
1.4080283743833681 -0.0635675085729579 0.0
0.9337820350754644 -0.0255191276480774 0.0
0.4836285712300146 0.2137547404811000 0.0
0.9083299297080907 -0.0554394370052452 0.0
1.0263267261894133 -0.0642772985380643 0.0
1.5685443438198510 -0.0457514105231684 0.0