# vtk DataFile Version 3.0
LucasCarvalhoTCC Results
ASCII

DATASET POLYDATA
FIELD FieldData 1
TIME 1 1 double
3.4000000000000004

POINTS 600 float
0.0 2.0 0.0
0.25 1.989125 0.0
0.5 1.958 0.0
0.75 1.908875 0.0
1.0 1.844 0.0
1.25 1.765625 0.0
1.5 1.676 0.0
1.75 1.577375 0.0
2.0 1.472 0.0
2.25 1.362125 0.0
2.5 1.25 0.0
2.75 1.137875 0.0
3.0 1.028 0.0
3.25 0.922625 0.0
3.5 0.8240000000000001 0.0
3.75 0.734375 0.0
4.0 0.6560000000000001 0.0
4.25 0.5911249999999999 0.0
4.5 0.542 0.0
4.75 0.510875 0.0
5.0 0.5 0.0
5.25 0.5036250000000004 0.0
5.5 0.5140000000000002 0.0
5.75 0.5303750000000003 0.0
6.0 0.5519999999999996 0.0
6.25 0.578125 0.0
6.5 0.6080000000000005 0.0
6.75 0.6408749999999999 0.0
7.0 0.6760000000000002 0.0
7.25 0.7126249999999992 0.0
7.5 0.75 0.0
7.75 0.7873750000000004 0.0
8.0 0.8239999999999994 0.0
8.25 0.8591250000000001 0.0
8.5 0.8919999999999999 0.0
8.75 0.921875 0.0
9.0 0.9479999999999991 0.0
9.25 0.9696250000000011 0.0
9.5 0.9859999999999984 0.0
9.75 0.9963750000000013 0.0
10.0 1.0 0.0
0.0 0.0 0.0
10.0 0.0 0.0
0.124999999999674 1.994562500000014 0.0
0.3749999999999947 1.973562500000001 0.0
0.6249999999999918 1.933437500000002 0.0
0.874999999999979 1.876437500000006 0.0
1.124999999999963 1.804812500000012 0.0
1.374999999999944 1.72081250000002 0.0
1.624999999999985 1.626687500000006 0.0
1.874999999999953 1.52468750000002 0.0
2.124999999999936 1.417062500000028 0.0
2.374999999999952 1.306062500000022 0.0
2.624999999999919 1.193937500000036 0.0
2.87499999999992 1.082937500000035 0.0
3.124999999999946 0.9753125000000229 0.0
3.374999999999948 0.8733125000000204 0.0
3.624999999999972 0.77918750000001 0.0
3.874999999999963 0.6951875000000118 0.0
4.124999999999968 0.6235625000000082 0.0
4.394409538298571 0.5627485257243309 0.0
4.583333333333322 0.5316250000000015 0.0
4.666666666666668 0.5212499999999999 0.0
4.833333333333334 0.50725 0.0
4.916666666666667 0.503625 0.0
5.083333333333334 0.5012083333333335 0.0
5.166666666666666 0.502416666666667 0.0
5.333333333333334 0.5070833333333337 0.0
5.416666666666667 0.510541666666667 0.0
5.583333333333334 0.5194583333333336 0.0
5.666666666666666 0.5249166666666669 0.0
5.833333333333338 0.5375833333333339 0.0
5.916666666666661 0.544791666666666 0.0
6.105781577147724 0.5630541748119369 0.0
6.375 0.5930625000000003 0.0
6.624999999999988 0.6244374999999988 0.0
6.874999999999994 0.6584374999999991 0.0
7.125 0.6943124999999997 0.0
7.375 0.7313124999999996 0.0
7.624999999999994 0.7686874999999992 0.0
7.875 0.8056874999999999 0.0
8.125 0.8415624999999998 0.0
8.374999999999991 0.8755624999999989 0.0
8.624999999999995 0.9069374999999993 0.0
8.874999999999995 0.9349374999999991 0.0
9.125 0.9588125000000001 0.0
9.375 0.9778124999999998 0.0
9.625 0.9911874999999999 0.0
9.875 0.9981875000000007 0.0
0.0 1.799999999999167 0.0
0.0 1.6 0.0
0.0 1.400000000001387 0.0
0.0 1.200000000002774 0.0
0.0 1.000000000004117 0.0
0.0 0.8000000000033287 0.0
0.0 0.6000000000024965 0.0
0.0 0.4000000000016644 0.0
0.0 0.200000000000832 0.0
0.199999999999856 0.0 0.0
0.3999999999996677 0.0 0.0
0.5999999999994683 0.0 0.0
0.7999999999993286 0.0 0.0
0.9999999999991888 0.0 0.0
1.199999999999033 0.0 0.0
1.399999999998576 0.0 0.0
1.599999999997992 0.0 0.0
1.799999999997408 0.0 0.0
1.999999999996825 0.0 0.0
2.199999999996241 0.0 0.0
2.399999999995657 0.0 0.0
2.599999999995073 0.0 0.0
2.79999999999449 0.0 0.0
2.999999999993906 0.0 0.0
3.199999999993322 0.0 0.0
3.399999999992738 0.0 0.0
3.599999999992154 0.0 0.0
3.799999999991571 0.0 0.0
3.999999999991022 0.0 0.0
4.199999999991187 0.0 0.0
4.399999999991491 0.0 0.0
4.599999999991795 0.0 0.0
4.799999999992099 0.0 0.0
4.999999999992403 0.0 0.0
5.199999999992706 0.0 0.0
5.39999999999301 0.0 0.0
5.599999999993313 0.0 0.0
5.799999999993618 0.0 0.0
5.999999999993922 0.0 0.0
6.199999999994227 0.0 0.0
6.39999999999453 0.0 0.0
6.599999999994833 0.0 0.0
6.799999999995138 0.0 0.0
6.999999999995442 0.0 0.0
7.199999999995747 0.0 0.0
7.39999999999605 0.0 0.0
7.599999999996353 0.0 0.0
7.799999999996658 0.0 0.0
7.999999999996962 0.0 0.0
8.199999999997265 0.0 0.0
8.399999999997569 0.0 0.0
8.599999999997873 0.0 0.0
8.799999999998176 0.0 0.0
8.99999999999848 0.0 0.0
9.199999999998786 0.0 0.0
9.399999999999089 0.0 0.0
9.599999999999392 0.0 0.0
9.799999999999697 0.0 0.0
10.0 0.1999999999995579 0.0
10.0 0.3999999999989749 0.0
10.0 0.5999999999989468 0.0
10.0 0.7999999999994734 0.0
0.913963423524136 0.9126937851647636 0.0
1.629657910441747 0.8286436141773268 0.0
2.300136613917738 0.6369890708869279 0.0
0.5989085226155619 1.38125543468559 0.0
1.274155622640533 1.242773398230304 0.0
2.860215383945273 0.5217401976756945 0.0
9.469653920408135 0.4910067017840992 0.0
8.984679546317787 0.4696119782494839 0.0
8.499397693277212 0.4463630640980716 0.0
3.270918412356206 0.4522692359356972 0.0
1.223039611612243 0.5146439900227544 0.0
2.024812732135938 1.00818256045515 0.0
0.5365376864627701 0.5434316309416508 0.0
8.114834335444021 0.4602948767329583 0.0
7.742261962994204 0.4117304941858466 0.0
0.9443382341364558 1.456061359265878 0.0
1.665275621558886 1.201744468407863 0.0
1.89566112584099 0.4397284596316843 0.0
3.691409759982064 0.3560936332572802 0.0
7.368457390036411 0.3792926046732459 0.0
0.5071184951703254 0.9340893429149442 0.0
0.3822273842356539 1.647625881691675 0.0
5.916285335387544 0.2564903116750689 0.0
5.628860531758535 0.2582323053999509 0.0
5.380471017960128 0.2502349014663197 0.0
5.139244585769944 0.2549145445969738 0.0
2.686085237972266 0.8031095648160084 0.0
4.507599040026292 0.263176944655695 0.0
6.983755234374982 0.3380000000001097 0.0
9.720925955181613 0.6635813325201156 0.0
1.288006195687152 0.8759679848503046 0.0
9.20556379558699 0.6923669083350594 0.0
2.319913492084225 0.9512500928262699 0.0
8.73203612228155 0.6151508464420534 0.0
4.868679481352366 0.2526598053940744 0.0
4.10358044398202 0.3012437332986487 0.0
6.602422946953217 0.3126221952225479 0.0
2.534693527909069 0.3583319619586092 0.0
6.193332317503376 0.2894654215336858 0.0
0.8804088217382579 0.3735513844182569 0.0
0.7663303172393539 1.679065267574722 0.0
3.081211528283084 0.6968015573146217 0.0
1.241762689885858 1.521465072418641 0.0
1.573472750763779 0.3374689934575129 0.0
1.475107933015155 1.403918544935278 0.0
0.8212739503602162 1.195790902469637 0.0
4.681049549092561 0.3558177014380842 0.0
9.439519900118443 0.7366884444350511 0.0
2.201393787062887 0.3261463175998884 0.0
2.015369189818184 0.7109460688851087 0.0
8.32727069655695 0.6360373328685593 0.0
8.961488632119996 0.7119124617705204 0.0
9.22773266034565 0.3109430611770705 0.0
0.3000513553073295 1.178778127105867 0.0
1.91985473842554 1.233084801189704 0.0
8.749827252515535 0.3049638092131281 0.0
3.50551132590258 0.5576614504134195 0.0
3.040500962406976 0.290446660105673 0.0
9.72097519930939 0.3037986529514364 0.0
0.3073166349239687 0.3249300260882615 0.0
0.2948185331392187 0.7229775107826154 0.0
1.46029425821417 1.06552904833304 0.0
0.8085718129253527 0.673531272847494 0.0
7.913326191751847 0.5738936378911789 0.0
8.295349499871781 0.2556682497524391 0.0
4.31359646688283 0.3665214152100782 0.0
7.542842082022704 0.5249918217576657 0.0
1.058357552227335 1.116692590939024 0.0
2.214297272750292 1.159898327391242 0.0
2.901187336648686 0.8282146771898153 0.0
3.933498145061447 0.4325241689837319 0.0
7.956006969037984 0.2667411694088205 0.0
7.172393179434975 0.4835114022190097 0.0
1.440243631802057 0.6689433452646625 0.0
3.458541882144431 0.2581755850286561 0.0
5.791617360065465 0.3978542524532168 0.0
5.981529865241493 0.3900667299390458 0.0
1.083462543944253 0.7203994120564634 0.0
1.78518471978951 1.008552691762234 0.0
2.77360122246243 0.2689852172070111 0.0
2.565134389978369 0.9928826788184764 0.0
2.543046005790158 0.6034091352176242 0.0
3.293038780485421 0.6769811703257343 0.0
6.790787388653942 0.4353933509634578 0.0
1.140204059461831 0.2538227257007896 0.0
0.6242104065654487 0.2738473600765566 0.0
6.393430278703709 0.3766405270445946 0.0
8.533059390324546 0.6950580701614406 0.0
0.9961263693263854 1.612128843772703 0.0
1.697598586607002 0.5781950992180334 0.0
8.087930458724863 0.6517815437732153 0.0
0.2748906317360928 1.770749713716887 0.0
0.5785110002099415 1.757022387413085 0.0
5.550004842562332 0.3852675728674634 0.0
4.948161884155141 0.3480305424737933 0.0
1.741244734175577 1.381979611033466 0.0
5.312408927381063 0.3621256994047111 0.0
0.2492139438157334 1.453132031680879 0.0
7.597720022451821 0.2370268512906596 0.0
9.471021754366422 0.2472916581956264 0.0
7.714083843672875 0.600212897672991 0.0
4.520815862079482 0.3946753115680038 0.0
2.47356661122767 0.8007389356831706 0.0
7.325494311403363 0.528948935030723 0.0
7.147005275585743 0.2709670165999667 0.0
3.758046446289313 0.5474783841545341 0.0
3.893717059615281 0.1664960777568404 0.0
2.152835534199412 0.8614028741175742 0.0
8.995993312441625 0.1933410497113667 0.0
1.077676137392001 1.368204555688504 0.0
0.2429906229817933 0.9816066505657851 0.0
0.6261765586985547 1.180540007244081 0.0
9.81151801018651 0.816223424030724 0.0
0.6725442903064565 0.8425384371773644 0.0
1.74584086891446 0.2617492458514414 0.0
0.7667820686164357 1.440842670056678 0.0
8.539133693395232 0.1910926418035274 0.0
5.129145653242096 0.3632579123815574 0.0
6.816538849831732 0.2013284992826486 0.0
2.108503954619862 0.5359795950847274 0.0
6.933669557130528 0.4980836483776163 0.0
3.071406705674529 0.4919421055852253 0.0
2.001240035874449 0.2292738462614773 0.0
4.782473531509697 0.4061213127162872 0.0
0.5734126310178208 1.536352720889636 0.0
9.796714529589472 0.4898048068674991 0.0
5.678359041645315 0.373719883316694 0.0
5.427661572827738 0.3646059266294788 0.0
2.075214597532947 1.226969224366912 0.0
3.251521478555126 0.2637671977660283 0.0
2.722180837291864 0.9710783334409533 0.0
9.333262390342384 0.8479609887828539 0.0
1.367251332770493 0.2041553944563636 0.0
1.870721433742522 0.7905989208842599 0.0
1.387906762913351 1.555741687747287 0.0
9.559918612869 0.8444052974080497 0.0
9.286795039366257 0.4698254290795815 0.0
[...]
POINT_DATA 600

VECTORS Velocity float
0.0000000000000000 0.0000000000000000 0.0
0.0000000000000000 0.0000000000000000 0.0
0.0000000000000000 0.0000000000000000 0.0
0.0000000000000000 0.0000000000000000 0.0
0.0000000000000000 0.0000000000000000 0.0
0.0000000000000000 0.0000000000000000 0.0
0.0000000000000000 0.0000000000000000 0.0
0.0000000000000000 0.0000000000000000 0.0
0.0000000000000000 0.0000000000000000 0.0
0.0000000000000000 0.0000000000000000 0.0
0.0000000000000000 0.0000000000000000 0.0
0.0000000000000000 0.0000000000000000 0.0
0.0000000000000000 0.0000000000000000 0.0
0.0000000000000000 0.0000000000000000 0.0
0.0000000000000000 0.0000000000000000 0.0
0.0000000000000000 0.0000000000000000 0.0
0.0000000000000000 0.0000000000000000 0.0
0.0000000000000000 0.0000000000000000 0.0
0.0000000000000000 0.0000000000000000 0.0
0.0000000000000000 0.0000000000000000 0.0
0.0000000000000000 0.0000000000000000 0.0
0.0000000000000000 0.0000000000000000 0.0
0.0000000000000000 0.0000000000000000 0.0
0.0000000000000000 0.0000000000000000 0.0
0.0000000000000000 0.0000000000000000 0.0
0.0000000000000000 0.0000000000000000 0.0
0.0000000000000000 0.0000000000000000 0.0
0.0000000000000000 0.0000000000000000 0.0
0.0000000000000000 0.0000000000000000 0.0
0.0000000000000000 0.0000000000000000 0.0
0.0000000000000000 0.0000000000000000 0.0
0.0000000000000000 0.0000000000000000 0.0
0.0000000000000000 0.0000000000000000 0.0
0.0000000000000000 0.0000000000000000 0.0
0.0000000000000000 0.0000000000000000 0.0
0.0000000000000000 0.0000000000000000 0.0
0.0000000000000000 0.0000000000000000 0.0
0.0000000000000000 0.0000000000000000 0.0
0.0000000000000000 0.0000000000000000 0.0
0.0000000000000000 0.0000000000000000 0.0
0.0000000000000000 0.0000000000000000 0.0
0.0000000000000000 0.0000000000000000 0.0
0.8242359767522194 -0.1316107883205985 0.0
0.0000000000000000 0.0000000000000000 0.0
0.0000000000000000 0.0000000000000000 0.0
0.0000000000000000 0.0000000000000000 0.0
0.0000000000000000 0.0000000000000000 0.0
0.0000000000000000 0.0000000000000000 0.0
0.0000000000000000 0.0000000000000000 0.0
0.0000000000000000 0.0000000000000000 0.0
0.0000000000000000 0.0000000000000000 0.0
0.0000000000000000 0.0000000000000000 0.0
0.0000000000000000 0.0000000000000000 0.0
0.0000000000000000 0.0000000000000000 0.0
0.0000000000000000 0.0000000000000000 0.0
0.0000000000000000 0.0000000000000000 0.0
0.0000000000000000 0.0000000000000000 0.0
0.0000000000000000 0.0000000000000000 0.0
0.0000000000000000 0.0000000000000000 0.0
0.0000000000000000 0.0000000000000000 0.0
0.0000000000000000 0.0000000000000000 0.0
0.0000000000000000 0.0000000000000000 0.0
0.0000000000000000 0.0000000000000000 0.0
0.0000000000000000 0.0000000000000000 0.0
0.0000000000000000 0.0000000000000000 0.0
0.0000000000000000 0.0000000000000000 0.0
0.0000000000000000 0.0000000000000000 0.0
0.0000000000000000 0.0000000000000000 0.0
0.0000000000000000 0.0000000000000000 0.0
0.0000000000000000 0.0000000000000000 0.0
0.0000000000000000 0.0000000000000000 0.0
0.0000000000000000 0.0000000000000000 0.0
0.0000000000000000 0.0000000000000000 0.0
0.0000000000000000 0.0000000000000000 0.0
0.0000000000000000 0.0000000000000000 0.0
0.0000000000000000 0.0000000000000000 0.0
0.0000000000000000 0.0000000000000000 0.0
0.0000000000000000 0.0000000000000000 0.0
0.0000000000000000 0.0000000000000000 0.0
0.0000000000000000 0.0000000000000000 0.0
0.0000000000000000 0.0000000000000000 0.0
0.0000000000000000 0.0000000000000000 0.0
0.0000000000000000 0.0000000000000000 0.0
0.0000000000000000 0.0000000000000000 0.0
0.0000000000000000 0.0000000000000000 0.0
0.0000000000000000 0.0000000000000000 0.0
0.0000000000000000 0.0000000000000000 0.0
0.0000000000000000 0.0000000000000000 0.0
0.0000000000000000 0.0000000000000000 0.0
1.0000000000000000 0.0000000000000000 0.0
1.0000000000000000 0.0000000000000000 0.0
1.0000000000000000 0.0000000000000000 0.0
1.0000000000000000 0.0000000000000000 0.0
1.0000000000000000 0.0000000000000000 0.0
1.0000000000000000 0.0000000000000000 0.0
1.0000000000000000 0.0000000000000000 0.0
1.0000000000000000 0.0000000000000000 0.0
1.0000000000000000 0.0000000000000000 0.0
0.0000000000000000 0.0000000000000000 0.0
0.0000000000000000 0.0000000000000000 0.0
0.0000000000000000 0.0000000000000000 0.0
0.0000000000000000 0.0000000000000000 0.0
0.0000000000000000 0.0000000000000000 0.0
0.0000000000000000 0.0000000000000000 0.0
0.0000000000000000 0.0000000000000000 0.0
0.0000000000000000 0.0000000000000000 0.0
0.0000000000000000 0.0000000000000000 0.0
0.0000000000000000 0.0000000000000000 0.0
0.0000000000000000 0.0000000000000000 0.0
0.0000000000000000 0.0000000000000000 0.0
0.0000000000000000 0.0000000000000000 0.0
0.0000000000000000 0.0000000000000000 0.0
0.0000000000000000 0.0000000000000000 0.0
0.0000000000000000 0.0000000000000000 0.0
0.0000000000000000 0.0000000000000000 0.0
0.0000000000000000 0.0000000000000000 0.0
0.0000000000000000 0.0000000000000000 0.0
0.0000000000000000 0.0000000000000000 0.0
0.0000000000000000 0.0000000000000000 0.0
0.0000000000000000 0.0000000000000000 0.0
0.0000000000000000 0.0000000000000000 0.0
0.0000000000000000 0.0000000000000000 0.0
0.0000000000000000 0.0000000000000000 0.0
0.0000000000000000 0.0000000000000000 0.0
0.0000000000000000 0.0000000000000000 0.0
0.0000000000000000 0.0000000000000000 0.0
0.0000000000000000 0.0000000000000000 0.0
0.0000000000000000 0.0000000000000000 0.0
0.0000000000000000 0.0000000000000000 0.0
0.0000000000000000 0.0000000000000000 0.0
0.0000000000000000 0.0000000000000000 0.0
0.0000000000000000 0.0000000000000000 0.0
0.0000000000000000 0.0000000000000000 0.0
0.0000000000000000 0.0000000000000000 0.0
0.0000000000000000 0.0000000000000000 0.0
0.0000000000000000 0.0000000000000000 0.0
0.0000000000000000 0.0000000000000000 0.0
0.0000000000000000 0.0000000000000000 0.0
0.0000000000000000 0.0000000000000000 0.0
0.0000000000000000 0.0000000000000000 0.0
0.0000000000000000 0.0000000000000000 0.0
0.0000000000000000 0.0000000000000000 0.0
0.0000000000000000 0.0000000000000000 0.0
0.0000000000000000 0.0000000000000000 0.0
0.0000000000000000 0.0000000000000000 0.0
0.0000000000000000 0.0000000000000000 0.0
0.0000000000000000 0.0000000000000000 0.0
1.0711226934457203 -0.4639736570827654 0.0
0.9660318883712761 -0.1980153724038241 0.0
0.9840495182418252 -0.0309568405207165 0.0
1.0703772467592700 0.3854449873516828 0.0
1.4002174200810593 0.0059758297796707 0.0
1.4862533027633333 -0.0984505822973647 0.0
1.4714642503472717 -0.1897919299777390 0.0
1.2351479299293135 -0.1244583381012242 0.0
1.3361445889379171 -0.0742094004261066 0.0
1.5325959580382635 -0.1169512707338938 0.0
1.5901213060667110 -0.0303187942593868 0.0
1.5333270251421931 0.0205429976751363 0.0
1.5837708514420434 0.0983127224254609 0.0
1.5107237471356814 -0.1193309357473269 0.0
1.1747083350558705 0.0042346440501204 0.0
1.3624073454690693 -0.0962027832712918 0.0
1.2331341986184090 0.2499727087779827 0.0
1.5844264979044143 0.0724649368491868 0.0
1.5631433448769749 0.0080492033263773 0.0
1.1375474823563336 -0.0422555435713283 0.0
1.2510535782777612 -0.0157196936374113 0.0
1.1397807277362155 -0.0718321225889188 0.0
1.5271326805550574 -0.0567568263401813 0.0
1.5804506779722129 0.0551541843572918 0.0
1.2286127496141779 0.0984089236478688 0.0
1.1247499065240785 -0.2560458449068040 0.0
1.4955806316095268 0.0144400053476802 0.0
1.4955279928799079 -0.0177196491758838 0.0
1.5251797004570851 0.0356235526496657 0.0
1.5471375219267953 0.0132587084567805 0.0
1.3232029971505448 -0.1135638008114353 0.0
1.4872522105188082 0.0099191717359260 0.0
1.6540962135023847 0.0258141967164964 0.0
1.3611947800560293 0.1308894920252045 0.0
1.4801288171634874 -0.0470510918388646 0.0
1.3836977575024749 -0.0480084803803326 0.0
1.3385530396690626 -0.1388024057156503 0.0
1.5113986831434101 0.0930292674575442 0.0
1.5117873657374183 0.0023846048967842 0.0
1.6249200534549981 -0.1066036828122867 0.0
1.6830014399607554 -0.0380724051627411 0.0
1.2007276388006993 -0.1037844409238497 0.0
1.5893087338231766 -0.0202910554151005 0.0
0.9583138236943547 0.0671010785002518 0.0
0.8370664646930972 0.0381343424611852 0.0
1.3816454990260456 -0.0446893439072877 0.0
0.8555412247275022 0.0430697425567889 0.0
0.8415582178781956 -0.0538460559037299 0.0
0.9704705427220452 0.0584169010209213 0.0
1.3470288995217430 -0.0572636024972102 0.0
1.8004903519939870 -0.1359293118941390 0.0
1.2805399664498709 0.0006187236474791 0.0
0.9737983215222825 -0.0717543806571281 0.0
1.4689228565143850 -0.1200107137416608 0.0
1.3650103073876743 0.0417112837593875 0.0
1.3288907613622283 0.0010314685192238 0.0
1.2155730729203800 -0.0203507863997661 0.0
1.0902074275440607 -0.0854735708544524 0.0
1.0494907309345962 0.0314074529656569 0.0
1.2478687695532076 0.0247820822931079 0.0
1.4511021151200565 -0.0618734870911746 0.0
1.2281040010126048 -0.0303969590305421 0.0
1.2023097281819144 -0.2097012687919722 0.0
1.1221298529852541 0.3474663030264297 0.0
1.1035363544198407 0.2106185920160984 0.0
1.4654647069191551 -0.0799976000684857 0.0
1.3111328832683495 0.1124233255313547 0.0
1.3995239650008604 0.0532195439265647 0.0
1.2319169357893671 0.0224681503061931 0.0
1.7382854134993568 0.0681605062671897 0.0
1.4845557588748766 -0.0105733219331265 0.0
1.4178475564705075 -0.0595727421218994 0.0
0.9039122721183339 0.0250865085345644 0.0
1.0946124305902536 -0.0110883196833764 0.0
1.6053380603375444 -0.1343527748141045 0.0
1.3117579804747308 0.0489384447411313 0.0
1.4482847104990018 0.0721716044133252 0.0
1.4031380714396806 -0.0611755873544635 0.0
1.2408472888876545 -0.0434498337845219 0.0
1.5393746836228084 -0.0425702814887397 0.0
1.6094904941319184 0.0403482987614448 0.0
1.4033714674924325 0.0239632267463928 0.0
1.4352614269971651 -0.0909457184395551 0.0
1.0759818091919084 -0.0954272663211853 0.0
0.9684801959487015 0.0126942140335357 0.0
1.5214908546964707 -0.1838926963656344 0.0
1.2376477465178226 -0.0964251239996334 0.0
1.5845276187269095 0.0135187000943483 0.0
0.5655018904967091 0.0300948767691912 0.0
0.8495854686814801 0.1061649124657383 0.0
1.6626027271885242 0.0133755164596943 0.0
1.2482976301973432 -0.0063306866021540 0.0
0.8401648755728517 0.0385767313849928 0.0
1.3248771801518129 -0.1088447686121325 0.0
1.1909531684133845 0.0055991276358287 0.0
1.1021479960011924 -0.2841258865361920 0.0
0.7980957731033468 0.0371444965285350 0.0
1.5948143681693960 0.0114756549727457 0.0
1.6646364774115234 -0.0091906859997558 0.0
0.8171422769953753 0.1129498203734697 0.0
1.6080141957838179 0.0561270139845125 0.0
1.0889586053477192 -0.2331502439619784 0.0
1.2207663968959894 0.0322512105003786 0.0
1.0958066140588445 -0.0424037824003678 0.0
1.2306860282329177 0.0140267415976824 0.0
1.6700325139488164 -0.0216845701625358 0.0
1.4534482905780597 -0.2145065987135249 0.0
1.4485272066371817 0.0458955099506042 0.0
1.4480332226000763 0.0891030040924238 0.0
1.3493415447866250 -0.0519958306753434 0.0
0.7452435353291557 -0.0909142077107108 0.0
1.4613868753168058 -0.1571485124729985 0.0
0.6536924873462692 -0.0046278351119028 0.0
1.2277681668507550 -0.0534322639379090 0.0
1.0582820198238601 0.0149719404994955 0.0
1.2839035316114980 -0.0367790687576056 0.0
1.1682086617502998 0.2323669833584698 0.0
1.3140658891330570 0.1046194517960069 0.0
0.6914455824678777 -0.0041744956622035 0.0
1.2061101922585775 -0.0806261112843569 0.0
0.7056248376736959 0.0046228155943057 0.0
1.6563536592120518 0.0019173361332839 0.0
1.0150792185251818 0.0772663157283411 0.0
1.3479476116337936 -0.1395956794192881 0.0
1.1381971893536005 0.0015012954787473 0.0
1.4874639866097663 -0.1418270770384358 0.0
0.5470083774555318 -0.0457518733810012 0.0
1.1807086546634213 -0.0784254421545961 0.0
1.1705941663539214 -0.1286613598282176 0.0
1.2868084380111318 -0.1042173000793674 0.0
1.6373705747504781 -0.0138648802751033 0.0
1.6048419988186537 0.0503666528500673 0.0
0.8800121452478397 0.0850618960596268 0.0
1.2407273749469721 -0.0444927000342429 0.0
0.7424527428948372 0.1136220745920353 0.0
0.5924819699226158 -0.0026781744873067 0.0
0.4170289701762327 0.0217805082582859 0.0
1.4714244542564761 -0.1103868791098452 0.0
0.5529939037935738 0.1796173379387044 0.0
0.7004138739920448 -0.0056740448369995 0.0
1.5621286699802177 0.0252500608328905 0.0
1.2853614844474299 -0.0506359279166643 0.0
1.2098655404637098 -0.0405908111929564 0.0
1.5677929124776466 0.0694277181141719 0.0
1.4527468173792899 -0.0679822578511141 0.0
1.5716655937623281 0.0288656130405963 0.0
1.1838092993818836 0.0547423233039335 0.0
1.1104758956613527 -0.2611361367622104 0.0
1.2294824009683059 0.1871405172906814 0.0
1.1071792658210782 0.2423873478926795 0.0
1.0737808920550473 -0.0461746887123881 0.0
1.1845122195921900 0.0250420509227944 0.0
0.9319426910928982 0.0425076903832323 0.0
0.5803038906153535 0.1620960446357059 0.0
0.9917814480018069 -0.0116480172756636 0.0
1.4516833933744759 -0.0420565589553940 0.0
0.7658398879404472 0.0675599068353314 0.0
1.1834414507913884 0.0653063146745459 0.0
1.4959803060686456 -0.0745934038005160 0.0
0.8775771972711367 -0.0240614476398243 0.0
1.2624162616878047 0.0302237898238136 0.0
1.5258407833049050 0.0514789542876990 0.0
1.1852767511942781 -0.2056529886241453 0.0
1.3141923025989255 -0.1135421570564656 0.0
0.5104300824979724 0.1578321830900384 0.0
0.5086852922310178 0.1263795814005457 0.0
0.8396859700030957 -0.0137193075892445 0.0
1.4753994776931623 -0.0805724618076042 0.0
1.4831054262161312 -0.0918524240664609 0.0
0.5431262544236773 0.1814074088290923 0.0
0.6827392073922587 -0.0625290842594178 0.0
1.1214142812113470 0.0212888874493216 0.0
1.4697177788192606 -0.1189777976007935 0.0
0.9858782170066022 -0.0136087119737524 0.0
1.3452469459793064 0.0095690651266705 0.0
1.4098999217887420 -0.1034556188024634 0.0
0.9659095076760075 0.0081951908757924 0.0
0.8753502710074427 0.0704316607794281 0.0
1.3265429989842701 -0.0012348194142975 0.0
0.7685134764435799 -0.0259971491096288 0.0
1.5634584484034344 -0.0255280598779084 0.0
0.7658299015840765 0.0220076198382588 0.0
0.7723620051490051 -0.0298366558924688 0.0
1.2963361470895920 -0.0808190325524858 0.0
1.4133765777855545 -0.0129231099035358 0.0
0.9896986923371776 0.0115998394445837 0.0
0.5874213277641601 0.2002586226502157 0.0
0.9124707944813129 -0.0048129592355430 0.0
1.1374427121033441 -0.0560826212352227 0.0
0.8122955999031292 0.0996125066893814 0.0
1.1614968181809098 0.1556689437601295 0.0
1.0655177380588110 -0.0039407016979409 0.0
0.6811545211340059 0.0184555338463349 0.0
1.5271059688327600 -0.0212529406569147 0.0
0.9041887636940215 -0.0122109705798092 0.0
1.5505649953397340 -0.0268948581604057 0.0
0.4119994993294117 -0.0304734385622376 0.0
1.4745316055733086 -0.1725027302277014 0.0
1.6038276214023235 -0.0120912075094693 0.0
0.5368064943507623 0.1187802779300237 0.0
0.7789947408506199 -0.0246538705257805 0.0
1.5847193501529369 0.0678295667066112 0.0
0.9342745507682308 0.0958250711451661 0.0
1.5623642050262372 0.0583409155692067 0.0
0.9636580913017324 -0.0006184001427265 0.0
0.7998545295677724 -0.0599964851797336 0.0
0.6686992447016529 -0.0389155676118491 0.0
1.0208421373479106 -0.0256811008624562 0.0
1.0040864308584816 0.0297794238021196 0.0
1.4548501025743901 0.0139366907207936 0.0
0.5586357794468854 0.0374180569804428 0.0
0.8829277415801801 -0.0616472068862900 0.0
0.8522616029899276 0.0504198250978856 0.0
1.4232333952864260 0.0806317722489336 0.0
0.8006770640669127 -0.2000943443463134 0.0
0.8301608941133231 -0.0258611309692308 0.0
0.5225923500004230 -0.0487252573568767 0.0
1.0242086738520162 0.0354852860100908 0.0
0.7056998424080028 0.2029664947787460 0.0
0.9034133485966154 0.0438017300113535 0.0
1.2687611320443941 -0.1118396815339067 0.0
0.7620501152731926 -0.0188908014827428 0.0
0.9010764617620090 -0.0015694580292250 0.0
0.9684180416989752 -0.0038820468898002 0.0
0.7926090231738631 -0.0313920862653805 0.0
0.7696972060304554 -0.0442239210050476 0.0
1.4949317189931852 0.0251625884090963 0.0
0.8008270789104561 -0.0313232161690134 0.0
1.0391273293374681 -0.0915098746372456 0.0
0.8394244813315199 0.0547872337937815 0.0
1.2911073071550054 -0.0260417725218837 0.0
0.6319405762787197 -0.0198485236923157 0.0
0.3754437045513872 0.0048307208828580 0.0
1.1962855228760083 -0.1169654362910439 0.0
0.8369587963844234 0.1031109598770467 0.0
0.7951711657646037 -0.0163595261072114 0.0
0.9608237112365940 0.0558516488018838 0.0
1.3860443596906156 -0.0344770967628909 0.0
0.6539987260381913 -0.0214542156732970 0.0
1.2168933067388916 0.1882404397293741 0.0
1.5040020914692842 0.0071674761182288 0.0
0.7108379083787092 -0.0127714804774641 0.0
1.1434960868240525 0.0043191733928761 0.0
1.2824038587023117 -0.0745835617119161 0.0
1.0669834503880677 -0.0568481217342179 0.0
1.4682647389882548 -0.1312550772533829 0.0
0.4544369392013345 0.2189408890592151 0.0
1.7303744507875127 0.0213515560583774 0.0
1.3871832527859627 0.0410340843669794 0.0
0.5548912707149913 0.0509277406897096 0.0
1.4840912403015976 -0.1596538785966248 0.0
1.5176444683741261 -0.0873973892277733 0.0
0.6327731056028284 -0.0078192508560577 0.0
1.0264354989163280 -0.0208438721017451 0.0
0.6730592973393384 -0.0388245982766385 0.0
0.9512692949356996 -0.0773492480284622 0.0
0.7842160626255061 -0.0530662828687355 0.0
0.3869374982270306 0.2196981138414170 0.0
1.1125732142217906 0.2601670786621217 0.0
1.5950730792049392 0.0093222060525491 0.0
0.5774969936612511 0.2226669579219655 0.0
1.5778077569279556 -0.0636595564523019 0.0
1.7460942606884897 0.0987657193748481 0.0
0.5330389882573469 0.2193515453508259 0.0
1.4841383957818912 0.0474345457242910 0.0
1.4152604769103365 -0.1360026956507361 0.0
0.9234226807222029 0.2512396164411435 0.0
1.2870095636580359 -0.0210288396002097 0.0
1.3174714968303571 0.0224797821841632 0.0
0.7802917083891484 0.0898297864663633 0.0
1.3379166842938577 -0.1174494139011667 0.0
0.6953372363116735 -0.0565998473100591 0.0
0.5675272665905325 0.2045713497177201 0.0
0.3950256602380008 0.0191876246734760 0.0
1.1925559073531131 -0.0144169984025428 0.0
0.8833989008806368 -0.2764211264932157 0.0
1.4220206302409515 0.1020511164648761 0.0
1.2973563443625602 -0.1135227650775018 0.0
0.5593342095055374 -0.0119840790263512 0.0
0.5796116244225088 0.0491572525531221 0.0
0.6990784966035838 0.0180766538392765 0.0
1.1766067441237598 -0.0057716547986259 0.0
1.2020448989538943 0.3151013246670668 0.0
0.5613908121625053 -0.0324522928063463 0.0
1.1143667087287690 -0.0696126172785740 0.0
0.5923684009449662 0.0404050094505845 0.0
1.5694527399824074 0.0405812254626928 0.0
0.4496928982583120 0.2547903946257832 0.0
0.7393370435708927 -0.1225386624334890 0.0
1.5422067984217194 -0.0451273610197722 0.0
1.2516890480246887 0.0393338697675381 0.0
1.5401817325942524 -0.1421167507452459 0.0
0.6831650613011603 0.0059985646700412 0.0
0.8722295168176172 -0.0342555206707612 0.0
1.4595500778904265 -0.1037400845173212 0.0
1.4423113677221879 -0.0942369532755937 0.0
1.0278585480114193 0.0665628138240444 0.0
1.4506934858332952 0.0380155951375143 0.0
1.3496569588611951 -0.0633470460420793 0.0
1.2830622065627815 0.1695622497881285 0.0
0.8048619582896543 -0.0070711342479826 0.0
0.7446252866879488 -0.0212818350989548 0.0
0.6770158324702112 -0.0462780542928844 0.0
1.3216867984446947 -0.0646639702850065 0.0
1.3334903314031032 -0.0883898221000539 0.0
1.1576031483199256 0.1231346246194677 0.0
0.3244471308209659 0.0322954939107503 0.0
1.4391149923390307 -0.0915418887278557 0.0
0.2923825440136150 0.1110873671333704 0.0
0.6918795774667135 0.1211216383067133 0.0
1.0382278356471186 0.0529166033707800 0.0
0.5382078602310182 -0.1143969357433382 0.0
1.1458001734311376 -0.3181898696332319 0.0
1.4124354392848018 -0.0731094065198907 0.0
1.6093690511887304 -0.0188833569342316 0.0
0.7315703968374299 0.1116900409378890 0.0
1.5205991775620311 -0.0625174545618880 0.0
0.9323828743388676 -0.0331144615937640 0.0
1.4179220005699686 -0.0648548873881021 0.0
0.9339897764759530 -0.0254997421932911 0.0
0.4772043521941511 0.2169601968843309 0.0
0.9082844392059950 -0.0555064678428543 0.0
1.0262866578394798 -0.0642731314561837 0.0
1.5686394624321340 -0.0455343106349897 0.0