# vtk DataFile Version 3.0
LucasCarvalhoTCC Results
ASCII

DATASET POLYDATA
FIELD FieldData 1
TIME 1 1 double
0.5

POINTS 600 float
0.0 2.0 0.0
0.25 1.989125 0.0
0.5 1.958 0.0
0.75 1.908875 0.0
1.0 1.844 0.0
1.25 1.765625 0.0
1.5 1.676 0.0
1.75 1.577375 0.0
2.0 1.472 0.0
2.25 1.362125 0.0
2.5 1.25 0.0
2.75 1.137875 0.0
3.0 1.028 0.0
3.25 0.922625 0.0
3.5 0.8240000000000001 0.0
3.75 0.734375 0.0
4.0 0.6560000000000001 0.0
4.25 0.5911249999999999 0.0
4.5 0.542 0.0
4.75 0.510875 0.0
5.0 0.5 0.0
5.25 0.5036250000000004 0.0
5.5 0.5140000000000002 0.0
5.75 0.5303750000000003 0.0
6.0 0.5519999999999996 0.0
6.25 0.578125 0.0
6.5 0.6080000000000005 0.0
6.75 0.6408749999999999 0.0
7.0 0.6760000000000002 0.0
7.25 0.7126249999999992 0.0
7.5 0.75 0.0
7.75 0.7873750000000004 0.0
8.0 0.8239999999999994 0.0
8.25 0.8591250000000001 0.0
8.5 0.8919999999999999 0.0
8.75 0.921875 0.0
9.0 0.9479999999999991 0.0
9.25 0.9696250000000011 0.0
9.5 0.9859999999999984 0.0
9.75 0.9963750000000013 0.0
10.0 1.0 0.0
0.0 0.0 0.0
10.0 0.0 0.0
0.124999999999674 1.994562500000014 0.0
0.3749999999999947 1.973562500000001 0.0
0.6249999999999918 1.933437500000002 0.0
0.874999999999979 1.876437500000006 0.0
1.124999999999963 1.804812500000012 0.0
1.374999999999944 1.72081250000002 0.0
1.624999999999985 1.626687500000006 0.0
1.874999999999953 1.52468750000002 0.0
2.124999999999936 1.417062500000028 0.0
2.374999999999952 1.306062500000022 0.0
2.624999999999919 1.193937500000036 0.0
2.87499999999992 1.082937500000035 0.0
3.124999999999946 0.9753125000000229 0.0
3.374999999999948 0.8733125000000204 0.0
3.624999999999972 0.77918750000001 0.0
3.874999999999963 0.6951875000000118 0.0
4.124999999999968 0.6235625000000082 0.0
4.394409538298571 0.5627485257243309 0.0
4.583333333333322 0.5316250000000015 0.0
4.666666666666668 0.5212499999999999 0.0
4.833333333333334 0.50725 0.0
4.916666666666667 0.503625 0.0
5.083333333333334 0.5012083333333335 0.0
5.166666666666666 0.502416666666667 0.0
5.333333333333334 0.5070833333333337 0.0
5.416666666666667 0.510541666666667 0.0
5.583333333333334 0.5194583333333336 0.0
5.666666666666666 0.5249166666666669 0.0
5.833333333333338 0.5375833333333339 0.0
5.916666666666661 0.544791666666666 0.0
6.105781577147724 0.5630541748119369 0.0
6.375 0.5930625000000003 0.0
6.624999999999988 0.6244374999999988 0.0
6.874999999999994 0.6584374999999991 0.0
7.125 0.6943124999999997 0.0
7.375 0.7313124999999996 0.0
7.624999999999994 0.7686874999999992 0.0
7.875 0.8056874999999999 0.0
8.125 0.8415624999999998 0.0
8.374999999999991 0.8755624999999989 0.0
8.624999999999995 0.9069374999999993 0.0
8.874999999999995 0.9349374999999991 0.0
9.125 0.9588125000000001 0.0
9.375 0.9778124999999998 0.0
9.625 0.9911874999999999 0.0
9.875 0.9981875000000007 0.0
0.0 1.799999999999167 0.0
0.0 1.6 0.0
0.0 1.400000000001387 0.0
0.0 1.200000000002774 0.0
0.0 1.000000000004117 0.0
0.0 0.8000000000033287 0.0
0.0 0.6000000000024965 0.0
0.0 0.4000000000016644 0.0
0.0 0.200000000000832 0.0
0.199999999999856 0.0 0.0
0.3999999999996677 0.0 0.0
0.5999999999994683 0.0 0.0
0.7999999999993286 0.0 0.0
0.9999999999991888 0.0 0.0
1.199999999999033 0.0 0.0
1.399999999998576 0.0 0.0
1.599999999997992 0.0 0.0
1.799999999997408 0.0 0.0
1.999999999996825 0.0 0.0
2.199999999996241 0.0 0.0
2.399999999995657 0.0 0.0
2.599999999995073 0.0 0.0
2.79999999999449 0.0 0.0
2.999999999993906 0.0 0.0
3.199999999993322 0.0 0.0
3.399999999992738 0.0 0.0
3.599999999992154 0.0 0.0
3.799999999991571 0.0 0.0
3.999999999991022 0.0 0.0
4.199999999991187 0.0 0.0
4.399999999991491 0.0 0.0
4.599999999991795 0.0 0.0
4.799999999992099 0.0 0.0
4.999999999992403 0.0 0.0
5.199999999992706 0.0 0.0
5.39999999999301 0.0 0.0
5.599999999993313 0.0 0.0
5.799999999993618 0.0 0.0
5.999999999993922 0.0 0.0
6.199999999994227 0.0 0.0
6.39999999999453 0.0 0.0
6.599999999994833 0.0 0.0
6.799999999995138 0.0 0.0
6.999999999995442 0.0 0.0
7.199999999995747 0.0 0.0
7.39999999999605 0.0 0.0
7.599999999996353 0.0 0.0
7.799999999996658 0.0 0.0
7.999999999996962 0.0 0.0
8.199999999997265 0.0 0.0
8.399999999997569 0.0 0.0
8.599999999997873 0.0 0.0
8.799999999998176 0.0 0.0
8.99999999999848 0.0 0.0
9.199999999998786 0.0 0.0
9.399999999999089 0.0 0.0
9.599999999999392 0.0 0.0
9.799999999999697 0.0 0.0
10.0 0.1999999999995579 0.0
10.0 0.3999999999989749 0.0
10.0 0.5999999999989468 0.0
10.0 0.7999999999994734 0.0
0.913963423524136 0.9126937851647636 0.0
1.629657910441747 0.8286436141773268 0.0
2.300136613917738 0.6369890708869279 0.0
0.5989085226155619 1.38125543468559 0.0
1.274155622640533 1.242773398230304 0.0
2.860215383945273 0.5217401976756945 0.0
9.469653920408135 0.4910067017840992 0.0
8.984679546317787 0.4696119782494839 0.0
8.499397693277212 0.4463630640980716 0.0
3.270918412356206 0.4522692359356972 0.0
1.223039611612243 0.5146439900227544 0.0
2.024812732135938 1.00818256045515 0.0
0.5365376864627701 0.5434316309416508 0.0
8.114834335444021 0.4602948767329583 0.0
7.742261962994204 0.4117304941858466 0.0
0.9443382341364558 1.456061359265878 0.0
1.665275621558886 1.201744468407863 0.0
1.89566112584099 0.4397284596316843 0.0
3.691409759982064 0.3560936332572802 0.0
7.368457390036411 0.3792926046732459 0.0
0.5071184951703254 0.9340893429149442 0.0
0.3822273842356539 1.647625881691675 0.0
5.916285335387544 0.2564903116750689 0.0
5.628860531758535 0.2582323053999509 0.0
5.380471017960128 0.2502349014663197 0.0
5.139244585769944 0.2549145445969738 0.0
2.686085237972266 0.8031095648160084 0.0
4.507599040026292 0.263176944655695 0.0
6.983755234374982 0.3380000000001097 0.0
9.720925955181613 0.6635813325201156 0.0
1.288006195687152 0.8759679848503046 0.0
9.20556379558699 0.6923669083350594 0.0
2.319913492084225 0.9512500928262699 0.0
8.73203612228155 0.6151508464420534 0.0
4.868679481352366 0.2526598053940744 0.0
4.10358044398202 0.3012437332986487 0.0
6.602422946953217 0.3126221952225479 0.0
2.534693527909069 0.3583319619586092 0.0
6.193332317503376 0.2894654215336858 0.0
0.8804088217382579 0.3735513844182569 0.0
0.7663303172393539 1.679065267574722 0.0
3.081211528283084 0.6968015573146217 0.0
1.241762689885858 1.521465072418641 0.0
1.573472750763779 0.3374689934575129 0.0
1.475107933015155 1.403918544935278 0.0
0.8212739503602162 1.195790902469637 0.0
4.681049549092561 0.3558177014380842 0.0
9.439519900118443 0.7366884444350511 0.0
2.201393787062887 0.3261463175998884 0.0
2.015369189818184 0.7109460688851087 0.0
8.32727069655695 0.6360373328685593 0.0
8.961488632119996 0.7119124617705204 0.0
9.22773266034565 0.3109430611770705 0.0
0.3000513553073295 1.178778127105867 0.0
1.91985473842554 1.233084801189704 0.0
8.749827252515535 0.3049638092131281 0.0
3.50551132590258 0.5576614504134195 0.0
3.040500962406976 0.290446660105673 0.0
9.72097519930939 0.3037986529514364 0.0
0.3073166349239687 0.3249300260882615 0.0
0.2948185331392187 0.7229775107826154 0.0
1.46029425821417 1.06552904833304 0.0
0.8085718129253527 0.673531272847494 0.0
7.913326191751847 0.5738936378911789 0.0
8.295349499871781 0.2556682497524391 0.0
4.31359646688283 0.3665214152100782 0.0
7.542842082022704 0.5249918217576657 0.0
1.058357552227335 1.116692590939024 0.0
2.214297272750292 1.159898327391242 0.0
2.901187336648686 0.8282146771898153 0.0
3.933498145061447 0.4325241689837319 0.0
7.956006969037984 0.2667411694088205 0.0
7.172393179434975 0.4835114022190097 0.0
1.440243631802057 0.6689433452646625 0.0
3.458541882144431 0.2581755850286561 0.0
5.791617360065465 0.3978542524532168 0.0
5.981529865241493 0.3900667299390458 0.0
1.083462543944253 0.7203994120564634 0.0
1.78518471978951 1.008552691762234 0.0
2.77360122246243 0.2689852172070111 0.0
2.565134389978369 0.9928826788184764 0.0
2.543046005790158 0.6034091352176242 0.0
3.293038780485421 0.6769811703257343 0.0
6.790787388653942 0.4353933509634578 0.0
1.140204059461831 0.2538227257007896 0.0
0.6242104065654487 0.2738473600765566 0.0
6.393430278703709 0.3766405270445946 0.0
8.533059390324546 0.6950580701614406 0.0
0.9961263693263854 1.612128843772703 0.0
1.697598586607002 0.5781950992180334 0.0
8.087930458724863 0.6517815437732153 0.0
0.2748906317360928 1.770749713716887 0.0
0.5785110002099415 1.757022387413085 0.0
5.550004842562332 0.3852675728674634 0.0
4.948161884155141 0.3480305424737933 0.0
1.741244734175577 1.381979611033466 0.0
5.312408927381063 0.3621256994047111 0.0
0.2492139438157334 1.453132031680879 0.0
7.597720022451821 0.2370268512906596 0.0
9.471021754366422 0.2472916581956264 0.0
7.714083843672875 0.600212897672991 0.0
4.520815862079482 0.3946753115680038 0.0
2.47356661122767 0.8007389356831706 0.0
7.325494311403363 0.528948935030723 0.0
7.147005275585743 0.2709670165999667 0.0
3.758046446289313 0.5474783841545341 0.0
3.893717059615281 0.1664960777568404 0.0
2.152835534199412 0.8614028741175742 0.0
8.995993312441625 0.1933410497113667 0.0
1.077676137392001 1.368204555688504 0.0
0.2429906229817933 0.9816066505657851 0.0
0.6261765586985547 1.180540007244081 0.0
9.81151801018651 0.816223424030724 0.0
0.6725442903064565 0.8425384371773644 0.0
1.74584086891446 0.2617492458514414 0.0
0.7667820686164357 1.440842670056678 0.0
8.539133693395232 0.1910926418035274 0.0
5.129145653242096 0.3632579123815574 0.0
6.816538849831732 0.2013284992826486 0.0
2.108503954619862 0.5359795950847274 0.0
6.933669557130528 0.4980836483776163 0.0
3.071406705674529 0.4919421055852253 0.0
2.001240035874449 0.2292738462614773 0.0
4.782473531509697 0.4061213127162872 0.0
0.5734126310178208 1.536352720889636 0.0
9.796714529589472 0.4898048068674991 0.0
5.678359041645315 0.373719883316694 0.0
5.427661572827738 0.3646059266294788 0.0
2.075214597532947 1.226969224366912 0.0
3.251521478555126 0.2637671977660283 0.0
2.722180837291864 0.9710783334409533 0.0
9.333262390342384 0.8479609887828539 0.0
1.367251332770493 0.2041553944563636 0.0
1.870721433742522 0.7905989208842599 0.0
1.387906762913351 1.555741687747287 0.0
9.559918612869 0.8444052974080497 0.0
9.286795039366257 0.4698254290795815 0.0
1.507117480770146 1.225129516597721 0.0
[...]
POINT_DATA 600

VECTORS Velocity float
0.0000000000000000 0.0000000000000000 0.0
0.0000000000000000 0.0000000000000000 0.0
0.0000000000000000 0.0000000000000000 0.0
0.0000000000000000 0.0000000000000000 0.0
0.0000000000000000 0.0000000000000000 0.0
0.0000000000000000 0.0000000000000000 0.0
0.0000000000000000 0.0000000000000000 0.0
0.0000000000000000 0.0000000000000000 0.0
0.0000000000000000 0.0000000000000000 0.0
0.0000000000000000 0.0000000000000000 0.0
0.0000000000000000 0.0000000000000000 0.0
0.0000000000000000 0.0000000000000000 0.0
0.0000000000000000 0.0000000000000000 0.0
0.0000000000000000 0.0000000000000000 0.0
0.0000000000000000 0.0000000000000000 0.0
0.0000000000000000 0.0000000000000000 0.0
0.0000000000000000 0.0000000000000000 0.0
0.0000000000000000 0.0000000000000000 0.0
0.0000000000000000 0.0000000000000000 0.0
0.0000000000000000 0.0000000000000000 0.0
0.0000000000000000 0.0000000000000000 0.0
0.0000000000000000 0.0000000000000000 0.0
0.0000000000000000 0.0000000000000000 0.0
0.0000000000000000 0.0000000000000000 0.0
0.0000000000000000 0.0000000000000000 0.0
0.0000000000000000 0.0000000000000000 0.0
0.0000000000000000 0.0000000000000000 0.0
0.0000000000000000 0.0000000000000000 0.0
0.0000000000000000 0.0000000000000000 0.0
0.0000000000000000 0.0000000000000000 0.0
0.0000000000000000 0.0000000000000000 0.0
0.0000000000000000 0.0000000000000000 0.0
0.0000000000000000 0.0000000000000000 0.0
0.0000000000000000 0.0000000000000000 0.0
0.0000000000000000 0.0000000000000000 0.0
0.0000000000000000 0.0000000000000000 0.0
0.0000000000000000 0.0000000000000000 0.0
0.0000000000000000 0.0000000000000000 0.0
0.0000000000000000 0.0000000000000000 0.0
0.0000000000000000 0.0000000000000000 0.0
0.0000000000000000 0.0000000000000000 0.0
0.0000000000000000 0.0000000000000000 0.0
0.8359842107535859 -0.1198728064620941 0.0
0.0000000000000000 0.0000000000000000 0.0
0.0000000000000000 0.0000000000000000 0.0
0.0000000000000000 0.0000000000000000 0.0
0.0000000000000000 0.0000000000000000 0.0
0.0000000000000000 0.0000000000000000 0.0
0.0000000000000000 0.0000000000000000 0.0
0.0000000000000000 0.0000000000000000 0.0
0.0000000000000000 0.0000000000000000 0.0
0.0000000000000000 0.0000000000000000 0.0
0.0000000000000000 0.0000000000000000 0.0
0.0000000000000000 0.0000000000000000 0.0
0.0000000000000000 0.0000000000000000 0.0
0.0000000000000000 0.0000000000000000 0.0
0.0000000000000000 0.0000000000000000 0.0
0.0000000000000000 0.0000000000000000 0.0
0.0000000000000000 0.0000000000000000 0.0
0.0000000000000000 0.0000000000000000 0.0
0.0000000000000000 0.0000000000000000 0.0
0.0000000000000000 0.0000000000000000 0.0
0.0000000000000000 0.0000000000000000 0.0
0.0000000000000000 0.0000000000000000 0.0
0.0000000000000000 0.0000000000000000 0.0
0.0000000000000000 0.0000000000000000 0.0
0.0000000000000000 0.0000000000000000 0.0
0.0000000000000000 0.0000000000000000 0.0
0.0000000000000000 0.0000000000000000 0.0
0.0000000000000000 0.0000000000000000 0.0
0.0000000000000000 0.0000000000000000 0.0
0.0000000000000000 0.0000000000000000 0.0
0.0000000000000000 0.0000000000000000 0.0
0.0000000000000000 0.0000000000000000 0.0
0.0000000000000000 0.0000000000000000 0.0
0.0000000000000000 0.0000000000000000 0.0
0.0000000000000000 0.0000000000000000 0.0
0.0000000000000000 0.0000000000000000 0.0
0.0000000000000000 0.0000000000000000 0.0
0.0000000000000000 0.0000000000000000 0.0
0.0000000000000000 0.0000000000000000 0.0
0.0000000000000000 0.0000000000000000 0.0
0.0000000000000000 0.0000000000000000 0.0
0.0000000000000000 0.0000000000000000 0.0
0.0000000000000000 0.0000000000000000 0.0
0.0000000000000000 0.0000000000000000 0.0
0.0000000000000000 0.0000000000000000 0.0
0.0000000000000000 0.0000000000000000 0.0
0.0000000000000000 0.0000000000000000 0.0
1.0000000000000000 0.0000000000000000 0.0
1.0000000000000000 0.0000000000000000 0.0
1.0000000000000000 0.0000000000000000 0.0
1.0000000000000000 0.0000000000000000 0.0
1.0000000000000000 0.0000000000000000 0.0
1.0000000000000000 0.0000000000000000 0.0
1.0000000000000000 0.0000000000000000 0.0
1.0000000000000000 0.0000000000000000 0.0
1.0000000000000000 0.0000000000000000 0.0
0.0000000000000000 0.0000000000000000 0.0
0.0000000000000000 0.0000000000000000 0.0
0.0000000000000000 0.0000000000000000 0.0
0.0000000000000000 0.0000000000000000 0.0
0.0000000000000000 0.0000000000000000 0.0
0.0000000000000000 0.0000000000000000 0.0
0.0000000000000000 0.0000000000000000 0.0
0.0000000000000000 0.0000000000000000 0.0
0.0000000000000000 0.0000000000000000 0.0
0.0000000000000000 0.0000000000000000 0.0
0.0000000000000000 0.0000000000000000 0.0
0.0000000000000000 0.0000000000000000 0.0
0.0000000000000000 0.0000000000000000 0.0
0.0000000000000000 0.0000000000000000 0.0
0.0000000000000000 0.0000000000000000 0.0
0.0000000000000000 0.0000000000000000 0.0
0.0000000000000000 0.0000000000000000 0.0
0.0000000000000000 0.0000000000000000 0.0
0.0000000000000000 0.0000000000000000 0.0
0.0000000000000000 0.0000000000000000 0.0
0.0000000000000000 0.0000000000000000 0.0
0.0000000000000000 0.0000000000000000 0.0
0.0000000000000000 0.0000000000000000 0.0
0.0000000000000000 0.0000000000000000 0.0
0.0000000000000000 0.0000000000000000 0.0
0.0000000000000000 0.0000000000000000 0.0
0.0000000000000000 0.0000000000000000 0.0
0.0000000000000000 0.0000000000000000 0.0
0.0000000000000000 0.0000000000000000 0.0
0.0000000000000000 0.0000000000000000 0.0
0.0000000000000000 0.0000000000000000 0.0
0.0000000000000000 0.0000000000000000 0.0
0.0000000000000000 0.0000000000000000 0.0
0.0000000000000000 0.0000000000000000 0.0
0.0000000000000000 0.0000000000000000 0.0
0.0000000000000000 0.0000000000000000 0.0
0.0000000000000000 0.0000000000000000 0.0
0.0000000000000000 0.0000000000000000 0.0
0.0000000000000000 0.0000000000000000 0.0
0.0000000000000000 0.0000000000000000 0.0
0.0000000000000000 0.0000000000000000 0.0
0.0000000000000000 0.0000000000000000 0.0
0.0000000000000000 0.0000000000000000 0.0
0.0000000000000000 0.0000000000000000 0.0
0.0000000000000000 0.0000000000000000 0.0
0.0000000000000000 0.0000000000000000 0.0
0.0000000000000000 0.0000000000000000 0.0
0.0000000000000000 0.0000000000000000 0.0
0.0000000000000000 0.0000000000000000 0.0
1.0700860397012757 -0.4012582601038209 0.0
0.9838931595353276 -0.1326925271672582 0.0
0.9786183635401037 -0.0266029176117742 0.0
1.0761908148108685 0.3048397662639760 0.0
1.1554015998056950 0.0029461650127971 0.0
1.1884549546206371 -0.0379367793165378 0.0
1.2143193410236357 -0.0801892271439382 0.0
1.1402305524509366 -0.0316488484860842 0.0
1.2218490244625317 -0.0574994387227106 0.0
1.3061084242207386 -0.0632766404527104 0.0
1.3527037069687153 -0.0123149012492636 0.0
1.3556750465039438 0.0085884478619515 0.0
1.4201506786785267 0.0569191826832436 0.0
1.3655543466117783 -0.0815265117719682 0.0
1.1768003485849927 -0.0078901146801159 0.0
1.2042790758082735 -0.0687226289807721 0.0
1.1432158824638488 0.1031583346059498 0.0
1.4200246261506331 0.0496080042323438 0.0
1.4094004198805545 0.0194169382877499 0.0
1.1970208158963518 -0.0526408931447063 0.0
1.2396629471439233 -0.0572222330674136 0.0
1.1709779088721795 -0.0043982391174261 0.0
1.4673706050193895 -0.0351873230602741 0.0
1.4994357147646624 0.0197281177423430 0.0
1.1026474076700570 0.0592128545375707 0.0
1.2165766849623363 -0.1195087284452417 0.0
1.4750175321364880 0.0304994684575349 0.0
1.4789965181764371 -0.0217128763116853 0.0
1.5063314632954568 0.0290576595502407 0.0
1.5291752362357831 0.0218559198636104 0.0
1.3230474610576861 -0.1302399282409396 0.0
1.4881134843306989 -0.0171204150716507 0.0
1.6083941129631336 0.0260596490590631 0.0
1.2508334126754768 0.0799430010816454 0.0
1.1767415790525946 -0.0209875376717474 0.0
1.3499165605855945 -0.0257558825328662 0.0
1.2385420172958326 -0.1186301774072232 0.0
1.3783181272952143 0.0809932376708725 0.0
1.5035977415896487 -0.0070547338740661 0.0
1.6055425262272240 -0.0870199444377006 0.0
1.6591279823292875 -0.0497114868942295 0.0
1.2248105742733191 -0.0385429024006847 0.0
1.5657532897926072 -0.0189901584509604 0.0
1.1471122550938038 0.0347088577563062 0.0
1.1103913873863553 -0.0385081706209324 0.0
1.3211443228432860 -0.0889855828743896 0.0
1.1515613188889682 -0.0713894981565346 0.0
1.0782905076294880 -0.0494716325213520 0.0
1.2127551588723329 -0.0374009113733425 0.0
1.1561071332638160 -0.0160716996795653 0.0
1.7249142626043721 -0.1175090633747633 0.0
1.3362273416451655 0.0067808100306683 0.0
1.1178738536908641 -0.0653741880834568 0.0
1.1979815297266696 -0.0548945899455512 0.0
1.3625835346731348 0.0304858407899292 0.0
1.3143646854544584 0.0028673616557970 0.0
1.2827707655229501 -0.0171300051891270 0.0
1.0522217117018351 0.0061666556701132 0.0
1.2200295434019559 -0.0494426068620473 0.0
1.2747227962702694 0.0094383187878738 0.0
1.4012986724309962 -0.0769555540579813 0.0
1.2517077006405195 -0.0245948442635799 0.0
1.2441823807060604 -0.1455173610623861 0.0
1.1604118596490762 0.2257772090535423 0.0
1.0533694873000932 0.1315254082536745 0.0
1.2018642632928589 -0.0385415963684742 0.0
1.1431203377209576 0.0373787935675861 0.0
1.3944709107949622 0.0607610455573757 0.0
1.2540320719315412 0.0134751616275979 0.0
1.7042627574334828 0.0519681480326296 0.0
1.4262115283106418 0.0334095349815082 0.0
1.1759081853455311 -0.0224843404773312 0.0
1.1020373611640577 -0.0895536110929685 0.0
1.2169952097768040 -0.0520342864256845 0.0
1.5436682518481735 -0.1267299086369489 0.0
1.3065773628210797 0.0511972712346932 0.0
1.4073514722622280 0.0752854515017013 0.0
1.1707962805114780 -0.0222766648836709 0.0
1.2568054193593787 -0.0271047518579809 0.0
1.4650823153225223 -0.0321668804585453 0.0
1.5345656155618081 0.0396303684667786 0.0
1.1612973033444132 -0.0006403655494915 0.0
1.2076065407633012 -0.0491486288782181 0.0
1.1870041607208228 -0.0517641793384581 0.0
1.1405611807859695 -0.1217510178116757 0.0
1.2489893961974330 -0.0823625053000340 0.0
1.2785571708562147 -0.1276867138637463 0.0
1.5329770736002006 0.0034470773351729 0.0
0.8970370015016264 0.0185532244405345 0.0
1.0582216919663201 0.0620829851212009 0.0
1.6361557087988408 0.0248269920555106 0.0
1.2857945575684835 0.0241165221497151 0.0
1.1325502770881264 -0.0461211794813098 0.0
1.1617493600585953 -0.0362650583463228 0.0
1.2705043384644699 0.0204605308195250 0.0
1.1869215631383885 -0.2068719097681578 0.0
1.0740390160368500 0.0285899063163591 0.0
1.5084280578067022 0.0121215779632077 0.0
1.5826614525903433 -0.0118968282707539 0.0
1.1036544105791701 -0.0073125768090073 0.0
1.5297793793105809 0.0485924954489545 0.0
1.0682263277535113 -0.0741567370244342 0.0
1.2531143892632628 0.0150465423243096 0.0
1.2203328857627522 -0.0235398981386684 0.0
1.2869036539481400 0.0254768965847990 0.0
1.5864360515881599 -0.0283119277833098 0.0
1.2533238728222866 -0.1317082058236723 0.0
1.4006198210869756 0.0295791372568387 0.0
1.4259175962951984 0.0693135296171093 0.0
1.3381646587694160 -0.0668392848292590 0.0
0.7805878463623497 -0.0795010301140302 0.0
1.2084725120012847 -0.0846765964209423 0.0
0.7758878132911479 -0.0068022701439386 0.0
1.2043245533093609 -0.0598868906442049 0.0
1.0380685013284550 0.0404112159665176 0.0
1.1267891046254372 0.0045340431419757 0.0
1.2097580490192941 0.1766004653368609 0.0
1.1277518807755136 0.0470823862492802 0.0
0.9732528265705717 0.0193929899844531 0.0
1.1816111741626949 -0.0417845293700924 0.0
0.8038407974439421 0.0059806096232998 0.0
1.5675084134905217 0.0100053844905358 0.0
1.0401573459512892 0.0706126337388915 0.0
1.2114363995363555 -0.0656282391182273 0.0
1.1191116065057531 0.0050632459938946 0.0
1.3255383448175326 -0.0925904510030390 0.0
0.7654836223316308 -0.0435977215552866 0.0
1.1364781453641384 -0.0573801079422575 0.0
1.1851284378458040 -0.0369869598454097 0.0
1.1931238624316389 -0.0723089937880367 0.0
1.5365827510960797 -0.0045126643817933 0.0
1.5233461213357120 0.0361839055271444 0.0
1.1074624197717846 -0.0006427795684964 0.0
1.2448231261815186 -0.0305316278000888 0.0
0.8798907321136979 0.0345558099099443 0.0
0.7180319481520507 0.0016065163139064 0.0
0.6685282397884951 0.0307850961128017 0.0
1.1921252235096922 -0.0488843399542490 0.0
0.7880163897504991 0.0951119071424086 0.0
0.8204674625836920 -0.0045285425207854 0.0
1.3585987391728123 -0.0004983574752902 0.0
1.2455194730501955 -0.0474048848003413 0.0
1.2701571951861825 -0.0269264082825284 0.0
1.4153647667075313 0.0367302277827718 0.0
1.1879633542683981 -0.0328196873947671 0.0
1.5169518161864552 0.0119327015610048 0.0
1.2245328144156331 0.0664914983409199 0.0
1.1180048329528687 -0.1523566535917194 0.0
1.1061435468033456 0.0941786873844315 0.0
1.0886522546032322 0.1762882761779789 0.0
1.0638135284217425 -0.0391748579324045 0.0
1.1698536358530407 0.0262941064885696 0.0
0.9472738891974551 0.0165653519702167 0.0
0.7733041984126789 0.0651456197515422 0.0
0.9972109426177871 -0.0091077667908674 0.0
1.1715885867142686 -0.0159928339859972 0.0
0.8120233086005608 0.0757681933190452 0.0
1.1774692762635321 0.0080614971080116 0.0
1.1852640831451109 -0.0325562450466258 0.0
1.0614387435181645 -0.0025580436919908 0.0
1.2633157864420086 0.0225393825290882 0.0
1.3711801312440008 0.0324414117563538 0.0
1.1452726469892833 -0.0529613296249201 0.0
1.2152292943661149 -0.0627903477522786 0.0
0.7442682289552043 0.0797217450824490 0.0
0.7427918843566763 0.0595430471368927 0.0
0.8748165058484813 -0.0040409225604599 0.0
1.3237414704272823 -0.0737831033795730 0.0
1.1987947444350833 -0.0425212993308733 0.0
0.7706351024662036 0.0905531374155672 0.0
0.8406234514217391 -0.0222680489630427 0.0
1.0902542426698276 0.0097477142022719 0.0
1.2621496941930224 -0.0600357220839745 0.0
1.0344058220538872 0.0097465047360375 0.0
1.1400523771493154 0.0102297515651099 0.0
1.1795251057930121 -0.0393748571798133 0.0
0.9697101676962069 0.0042028573100419 0.0
0.9186340094184288 0.0486759095311991 0.0
1.2951840270632389 -0.0039705845316851 0.0
0.8583445540002722 -0.0187597562298241 0.0
1.4405225651523681 -0.0162906801072337 0.0
0.8231325470979729 0.0204058245134152 0.0
0.8195877981327565 -0.0165013124539874 0.0
1.1772138347252705 -0.0358400244222598 0.0
1.1643483891765474 -0.0113695444992053 0.0
1.0219780715853937 -0.0009725040432273 0.0
0.7991869215097910 0.1065980125199665 0.0
0.8775699612102212 0.0028834296424290 0.0
1.1785932722242201 -0.0102718825995356 0.0
0.9330195577536569 0.0260933751482976 0.0
1.1631323771428390 0.0744917249533228 0.0
1.2268614525999988 -0.0797908292474121 0.0
0.7677695619347764 0.0195418385406708 0.0
1.3429644200487472 -0.0118133404083296 0.0
0.9577792163455520 -0.0068209253028781 0.0
1.3309842014436846 -0.0166489335596986 0.0
0.6487758145670465 -0.0365961025540201 0.0
1.2281683230495515 -0.0963992968838651 0.0
1.3843670476438268 -0.0131977906819510 0.0
0.7848006380572855 0.0737077007072570 0.0
0.8296442683659955 -0.0256136894305646 0.0
1.4155384989236142 0.0597241407882028 0.0
1.0102849596555044 0.0284397579032814 0.0
1.4005984991032856 0.0361682624799483 0.0
1.1856227555397474 -0.0658998560765240 0.0
0.8674593668468037 -0.0430913614685052 0.0
0.8277927038463236 -0.0061603396509083 0.0
0.9964215001745435 -0.0162099705557775 0.0
0.9915624291457119 0.0245528063750922 0.0
1.4601721317343972 0.0037803810565408 0.0
0.6669962612128587 0.0323901559707885 0.0
0.8972672503847958 -0.0487572363554022 0.0
0.8495622383058562 0.0471642564890074 0.0
1.3696396394516896 0.0392765441168840 0.0
0.8361605268832296 -0.1709056672127322 0.0
0.8433653464509103 -0.0144203919756960 0.0
0.6396025773837924 -0.0331386724710967 0.0
1.2148951598237627 -0.0326692635108586 0.0
0.8345605181247600 0.1219028202240596 0.0
0.8875467369456664 0.0435858511980621 0.0
1.2122978592405633 -0.1107370484228295 0.0
0.8399765688525007 -0.0049991489920526 0.0
0.9319153299746026 -0.0076502520183437 0.0
1.1740218843194052 -0.0570878836442785 0.0
0.8451602630291195 -0.0126838174056691 0.0
0.8011927359431040 -0.0368809958201761 0.0
1.3290773693352431 0.0349632703383930 0.0
0.8728679261018355 -0.0194263520068872 0.0
1.0291582865395335 -0.0297408682798034 0.0
0.8421125013261732 0.0522741846495741 0.0
1.2382421652371329 -0.0707777067731328 0.0
0.7370721286350450 -0.0115660270329701 0.0
0.6003147602923605 0.0153753951120606 0.0
1.0996544470769867 -0.0067322204206239 0.0
0.9046066801248649 0.0629538402995835 0.0
0.8035569163407343 -0.0140407252339698 0.0
0.9612272687565047 0.0378485438233958 0.0
1.1561347142786174 -0.0091537423714503 0.0
0.7840194934137308 -0.0158420917347226 0.0
1.1491194600787955 0.1157883452343332 0.0
1.3463754357016560 -0.0006271210769203 0.0
0.7378931957829197 -0.0036913105342798 0.0
1.0903446757120872 0.0084645704358910 0.0
1.1505064681917589 -0.0217836302815078 0.0
1.1544142256265071 -0.0393224825242239 0.0
1.1980616837245788 -0.0640844806616742 0.0
0.6380492142826257 0.1476224050689648 0.0
1.6255922825063269 0.0171692304921913 0.0
1.1531994853409484 0.0153135249917036 0.0
0.6749753266629583 0.0584486694180688 0.0
1.2067939695411083 -0.0753469446474723 0.0
1.3116646093149058 -0.0893475169659518 0.0
0.7505883486797600 -0.0004544744167554 0.0
1.0235915541309333 0.0083837012118227 0.0
0.6880953205912010 -0.0370962317638056 0.0
0.9480042470416676 -0.0732532666798423 0.0
0.8077984372124893 -0.0639165859365370 0.0
0.5622895371349669 0.1621019310664588 0.0
1.1669108934614107 0.1117070858499953 0.0
1.5394063976243060 0.0221670382847830 0.0
0.7108833919411772 0.1610713118654254 0.0
1.4395088674936718 -0.0240524072263815 0.0
1.6913307489147826 0.0448047614298565 0.0
0.7072713094791353 0.1348981988456130 0.0
1.3949977247939522 0.0528608241560932 0.0
1.3178916340367832 -0.1172222565124632 0.0
0.9520602351155802 0.2241601398601986 0.0
1.2955990485161211 -0.0210149707378385 0.0
1.3156511929461885 0.0163796142682816 0.0
0.7957224997106770 0.0855750853890597 0.0
1.3027377873227157 -0.0627791647212498 0.0
0.8173227592945905 -0.0536749482676235 0.0
0.7635793860999645 0.1311414507457125 0.0
0.5784336902294450 0.0416429256286757 0.0
1.2302956580022570 -0.0279415624825994 0.0
0.9192299081112615 -0.2451579866545585 0.0
1.3596703011462064 0.0714110337724650 0.0
1.2716692152042059 -0.0494560251388324 0.0
0.6563418150046907 -0.0153096284801733 0.0
0.6808613429449430 0.0493238530881562 0.0
0.7487818464241820 0.0124573240782257 0.0
1.0861884003870206 0.0359535584200393 0.0
1.1414077323651250 0.1673173943856796 0.0
0.6757760643582953 -0.0446184670375527 0.0
1.1903905564749433 -0.0289323776680008 0.0
0.6493316464699707 0.0531848643869352 0.0
1.5280166631878973 0.0269473903315161 0.0
0.5942979685653922 0.1895670647152519 0.0
0.8257863136310506 -0.1089038513036110 0.0
1.4454302194368081 -0.0459618875815613 0.0
1.2690265125131639 0.0220181446250468 0.0
1.2945934804951156 -0.0845108900533539 0.0
0.7399056633202680 0.0040253712792984 0.0
0.8855350349958381 -0.0328914958730875 0.0
1.3425674449713381 -0.0775531196448172 0.0
1.1756391174937135 -0.0317683760146843 0.0
1.0156434286278506 0.0640808135809979 0.0
1.3695772026268700 0.0330115908266838 0.0
1.1927171109680650 -0.0423545650626713 0.0
1.1361563537788357 0.0697618024646609 0.0
1.0601697013992439 0.0019447155315476 0.0
0.7634018942527770 -0.0246762334624002 0.0
0.7024872651787308 -0.0389367109887192 0.0
1.2347237512904106 -0.0555442345736586 0.0
1.1908706889114786 -0.0282255377863215 0.0
1.0770582307297079 0.0922988400500106 0.0
0.5073912601739193 0.0341809821175350 0.0
1.3640106333875694 -0.1097927472276154 0.0
0.4534954499235781 0.0936033154029457 0.0
0.7454571374423874 0.0995374325306527 0.0
1.2011428264480233 -0.0477904328981456 0.0
0.5990290922114854 -0.1285456760587361 0.0
1.1401986467352299 -0.2511162677745412 0.0
1.2067167704339330 -0.0408474719319666 0.0
1.5273658955582206 -0.0100511236994721 0.0
0.7414326829965416 0.0951139012944235 0.0
1.5023136246922060 -0.0506536180810541 0.0
0.9190924879450091 -0.0256248734694688 0.0
1.2110299522394734 -0.0423085966899819 0.0
0.9225547523352352 -0.0244075460699011 0.0
0.6478370378122434 0.1400382863344085 0.0
0.9321158750620510 -0.0412853759148684 0.0
1.0611885727916976 -0.0471987222245269 0.0