# vtk DataFile Version 3.0
LucasCarvalhoTCC Results
ASCII

DATASET POLYDATA
FIELD FieldData 1
TIME 1 1 double
1.0

POINTS 600 float
0.0 2.0 0.0
0.25 1.989125 0.0
0.5 1.958 0.0
0.75 1.908875 0.0
1.0 1.844 0.0
1.25 1.765625 0.0
1.5 1.676 0.0
1.75 1.577375 0.0
2.0 1.472 0.0
2.25 1.362125 0.0
2.5 1.25 0.0
2.75 1.137875 0.0
3.0 1.028 0.0
3.25 0.922625 0.0
3.5 0.8240000000000001 0.0
3.75 0.734375 0.0
4.0 0.6560000000000001 0.0
4.25 0.5911249999999999 0.0
4.5 0.542 0.0
4.75 0.510875 0.0
5.0 0.5 0.0
5.25 0.5036250000000004 0.0
5.5 0.5140000000000002 0.0
5.75 0.5303750000000003 0.0
6.0 0.5519999999999996 0.0
6.25 0.578125 0.0
6.5 0.6080000000000005 0.0
6.75 0.6408749999999999 0.0
7.0 0.6760000000000002 0.0
7.25 0.7126249999999992 0.0
7.5 0.75 0.0
7.75 0.7873750000000004 0.0
8.0 0.8239999999999994 0.0
8.25 0.8591250000000001 0.0
8.5 0.8919999999999999 0.0
8.75 0.921875 0.0
9.0 0.9479999999999991 0.0
9.25 0.9696250000000011 0.0
9.5 0.9859999999999984 0.0
9.75 0.9963750000000013 0.0
10.0 1.0 0.0
0.0 0.0 0.0
10.0 0.0 0.0
0.124999999999674 1.994562500000014 0.0
0.3749999999999947 1.973562500000001 0.0
0.6249999999999918 1.933437500000002 0.0
0.874999999999979 1.876437500000006 0.0
1.124999999999963 1.804812500000012 0.0
1.374999999999944 1.72081250000002 0.0
1.624999999999985 1.626687500000006 0.0
1.874999999999953 1.52468750000002 0.0
2.124999999999936 1.417062500000028 0.0
2.374999999999952 1.306062500000022 0.0
2.624999999999919 1.193937500000036 0.0
2.87499999999992 1.082937500000035 0.0
3.124999999999946 0.9753125000000229 0.0
3.374999999999948 0.8733125000000204 0.0
3.624999999999972 0.77918750000001 0.0
3.874999999999963 0.6951875000000118 0.0
4.124999999999968 0.6235625000000082 0.0
4.394409538298571 0.5627485257243309 0.0
4.583333333333322 0.5316250000000015 0.0
4.666666666666668 0.5212499999999999 0.0
4.833333333333334 0.50725 0.0
4.916666666666667 0.503625 0.0
5.083333333333334 0.5012083333333335 0.0
5.166666666666666 0.502416666666667 0.0
5.333333333333334 0.5070833333333337 0.0
5.416666666666667 0.510541666666667 0.0
5.583333333333334 0.5194583333333336 0.0
5.666666666666666 0.5249166666666669 0.0
5.833333333333338 0.5375833333333339 0.0
5.916666666666661 0.544791666666666 0.0
6.105781577147724 0.5630541748119369 0.0
6.375 0.5930625000000003 0.0
6.624999999999988 0.6244374999999988 0.0
6.874999999999994 0.6584374999999991 0.0
7.125 0.6943124999999997 0.0
7.375 0.7313124999999996 0.0
7.624999999999994 0.7686874999999992 0.0
7.875 0.8056874999999999 0.0
8.125 0.8415624999999998 0.0
8.374999999999991 0.8755624999999989 0.0
8.624999999999995 0.9069374999999993 0.0
8.874999999999995 0.9349374999999991 0.0
9.125 0.9588125000000001 0.0
9.375 0.9778124999999998 0.0
9.625 0.9911874999999999 0.0
9.875 0.9981875000000007 0.0
0.0 1.799999999999167 0.0
0.0 1.6 0.0
0.0 1.400000000001387 0.0
0.0 1.200000000002774 0.0
0.0 1.000000000004117 0.0
0.0 0.8000000000033287 0.0
0.0 0.6000000000024965 0.0
0.0 0.4000000000016644 0.0
0.0 0.200000000000832 0.0
0.199999999999856 0.0 0.0
0.3999999999996677 0.0 0.0
0.5999999999994683 0.0 0.0
0.7999999999993286 0.0 0.0
0.9999999999991888 0.0 0.0
1.199999999999033 0.0 0.0
1.399999999998576 0.0 0.0
1.599999999997992 0.0 0.0
1.799999999997408 0.0 0.0
1.999999999996825 0.0 0.0
2.199999999996241 0.0 0.0
2.399999999995657 0.0 0.0
2.599999999995073 0.0 0.0
2.79999999999449 0.0 0.0
2.999999999993906 0.0 0.0
3.199999999993322 0.0 0.0
3.399999999992738 0.0 0.0
3.599999999992154 0.0 0.0
3.799999999991571 0.0 0.0
3.999999999991022 0.0 0.0
4.199999999991187 0.0 0.0
4.399999999991491 0.0 0.0
4.599999999991795 0.0 0.0
4.799999999992099 0.0 0.0
4.999999999992403 0.0 0.0
5.199999999992706 0.0 0.0
5.39999999999301 0.0 0.0
5.599999999993313 0.0 0.0
5.799999999993618 0.0 0.0
5.999999999993922 0.0 0.0
6.199999999994227 0.0 0.0
6.39999999999453 0.0 0.0
6.599999999994833 0.0 0.0
6.799999999995138 0.0 0.0
6.999999999995442 0.0 0.0
7.199999999995747 0.0 0.0
7.39999999999605 0.0 0.0
7.599999999996353 0.0 0.0
7.799999999996658 0.0 0.0
7.999999999996962 0.0 0.0
8.199999999997265 0.0 0.0
8.399999999997569 0.0 0.0
8.599999999997873 0.0 0.0
8.799999999998176 0.0 0.0
8.99999999999848 0.0 0.0
9.199999999998786 0.0 0.0
9.399999999999089 0.0 0.0
9.599999999999392 0.0 0.0
9.799999999999697 0.0 0.0
10.0 0.1999999999995579 0.0
10.0 0.3999999999989749 0.0
10.0 0.5999999999989468 0.0
10.0 0.7999999999994734 0.0
0.913963423524136 0.9126937851647636 0.0
1.629657910441747 0.8286436141773268 0.0
2.300136613917738 0.6369890708869279 0.0
0.5989085226155619 1.38125543468559 0.0
1.274155622640533 1.242773398230304 0.0
2.860215383945273 0.5217401976756945 0.0
9.469653920408135 0.4910067017840992 0.0
8.984679546317787 0.4696119782494839 0.0
8.499397693277212 0.4463630640980716 0.0
3.270918412356206 0.4522692359356972 0.0
1.223039611612243 0.5146439900227544 0.0
2.024812732135938 1.00818256045515 0.0
0.5365376864627701 0.5434316309416508 0.0
8.114834335444021 0.4602948767329583 0.0
7.742261962994204 0.4117304941858466 0.0
0.9443382341364558 1.456061359265878 0.0
1.665275621558886 1.201744468407863 0.0
1.89566112584099 0.4397284596316843 0.0
3.691409759982064 0.3560936332572802 0.0
7.368457390036411 0.3792926046732459 0.0
0.5071184951703254 0.9340893429149442 0.0
0.3822273842356539 1.647625881691675 0.0
5.916285335387544 0.2564903116750689 0.0
5.628860531758535 0.2582323053999509 0.0
5.380471017960128 0.2502349014663197 0.0
5.139244585769944 0.2549145445969738 0.0
2.686085237972266 0.8031095648160084 0.0
4.507599040026292 0.263176944655695 0.0
6.983755234374982 0.3380000000001097 0.0
9.720925955181613 0.6635813325201156 0.0
1.288006195687152 0.8759679848503046 0.0
9.20556379558699 0.6923669083350594 0.0
2.319913492084225 0.9512500928262699 0.0
8.73203612228155 0.6151508464420534 0.0
4.868679481352366 0.2526598053940744 0.0
4.10358044398202 0.3012437332986487 0.0
6.602422946953217 0.3126221952225479 0.0
2.534693527909069 0.3583319619586092 0.0
6.193332317503376 0.2894654215336858 0.0
0.8804088217382579 0.3735513844182569 0.0
0.7663303172393539 1.679065267574722 0.0
3.081211528283084 0.6968015573146217 0.0
1.241762689885858 1.521465072418641 0.0
1.573472750763779 0.3374689934575129 0.0
1.475107933015155 1.403918544935278 0.0
0.8212739503602162 1.195790902469637 0.0
4.681049549092561 0.3558177014380842 0.0
9.439519900118443 0.7366884444350511 0.0
2.201393787062887 0.3261463175998884 0.0
2.015369189818184 0.7109460688851087 0.0
8.32727069655695 0.6360373328685593 0.0
8.961488632119996 0.7119124617705204 0.0
9.22773266034565 0.3109430611770705 0.0
0.3000513553073295 1.178778127105867 0.0
1.91985473842554 1.233084801189704 0.0
8.749827252515535 0.3049638092131281 0.0
3.50551132590258 0.5576614504134195 0.0
3.040500962406976 0.290446660105673 0.0
9.72097519930939 0.3037986529514364 0.0
0.3073166349239687 0.3249300260882615 0.0
0.2948185331392187 0.7229775107826154 0.0
1.46029425821417 1.06552904833304 0.0
0.8085718129253527 0.673531272847494 0.0
7.913326191751847 0.5738936378911789 0.0
8.295349499871781 0.2556682497524391 0.0
4.31359646688283 0.3665214152100782 0.0
7.542842082022704 0.5249918217576657 0.0
1.058357552227335 1.116692590939024 0.0
2.214297272750292 1.159898327391242 0.0
2.901187336648686 0.8282146771898153 0.0
3.933498145061447 0.4325241689837319 0.0
7.956006969037984 0.2667411694088205 0.0
7.172393179434975 0.4835114022190097 0.0
1.440243631802057 0.6689433452646625 0.0
3.458541882144431 0.2581755850286561 0.0
5.791617360065465 0.3978542524532168 0.0
5.981529865241493 0.3900667299390458 0.0
1.083462543944253 0.7203994120564634 0.0
1.78518471978951 1.008552691762234 0.0
2.77360122246243 0.2689852172070111 0.0
2.565134389978369 0.9928826788184764 0.0
2.543046005790158 0.6034091352176242 0.0
3.293038780485421 0.6769811703257343 0.0
6.790787388653942 0.4353933509634578 0.0
1.140204059461831 0.2538227257007896 0.0
0.6242104065654487 0.2738473600765566 0.0
6.393430278703709 0.3766405270445946 0.0
8.533059390324546 0.6950580701614406 0.0
0.9961263693263854 1.612128843772703 0.0
1.697598586607002 0.5781950992180334 0.0
8.087930458724863 0.6517815437732153 0.0
0.2748906317360928 1.770749713716887 0.0
0.5785110002099415 1.757022387413085 0.0
5.550004842562332 0.3852675728674634 0.0
4.948161884155141 0.3480305424737933 0.0
1.741244734175577 1.381979611033466 0.0
5.312408927381063 0.3621256994047111 0.0
0.2492139438157334 1.453132031680879 0.0
7.597720022451821 0.2370268512906596 0.0
9.471021754366422 0.2472916581956264 0.0
7.714083843672875 0.600212897672991 0.0
4.520815862079482 0.3946753115680038 0.0
2.47356661122767 0.8007389356831706 0.0
7.325494311403363 0.528948935030723 0.0
7.147005275585743 0.2709670165999667 0.0
3.758046446289313 0.5474783841545341 0.0
3.893717059615281 0.1664960777568404 0.0
2.152835534199412 0.8614028741175742 0.0
8.995993312441625 0.1933410497113667 0.0
1.077676137392001 1.368204555688504 0.0
0.2429906229817933 0.9816066505657851 0.0
0.6261765586985547 1.180540007244081 0.0
9.81151801018651 0.816223424030724 0.0
0.6725442903064565 0.8425384371773644 0.0
1.74584086891446 0.2617492458514414 0.0
0.7667820686164357 1.440842670056678 0.0
8.539133693395232 0.1910926418035274 0.0
5.129145653242096 0.3632579123815574 0.0
6.816538849831732 0.2013284992826486 0.0
2.108503954619862 0.5359795950847274 0.0
6.933669557130528 0.4980836483776163 0.0
3.071406705674529 0.4919421055852253 0.0
2.001240035874449 0.2292738462614773 0.0
4.782473531509697 0.4061213127162872 0.0
0.5734126310178208 1.536352720889636 0.0
9.796714529589472 0.4898048068674991 0.0
5.678359041645315 0.373719883316694 0.0
5.427661572827738 0.3646059266294788 0.0
2.075214597532947 1.226969224366912 0.0
3.251521478555126 0.2637671977660283 0.0
2.722180837291864 0.9710783334409533 0.0
9.333262390342384 0.8479609887828539 0.0
1.367251332770493 0.2041553944563636 0.0
1.870721433742522 0.7905989208842599 0.0
1.387906762913351 1.555741687747287 0.0
9.559918612869 0.8444052974080497 0.0
9.286795039366257 0.4698254290795815 0.0
1.507117480770146 1.225129516597721 0.0
[...]
POINT_DATA 600

VECTORS Velocity float
0.0000000000000000 0.0000000000000000 0.0
0.0000000000000000 0.0000000000000000 0.0
0.0000000000000000 0.0000000000000000 0.0
0.0000000000000000 0.0000000000000000 0.0
0.0000000000000000 0.0000000000000000 0.0
0.0000000000000000 0.0000000000000000 0.0
0.0000000000000000 0.0000000000000000 0.0
0.0000000000000000 0.0000000000000000 0.0
0.0000000000000000 0.0000000000000000 0.0
0.0000000000000000 0.0000000000000000 0.0
0.0000000000000000 0.0000000000000000 0.0
0.0000000000000000 0.0000000000000000 0.0
0.0000000000000000 0.0000000000000000 0.0
0.0000000000000000 0.0000000000000000 0.0
0.0000000000000000 0.0000000000000000 0.0
0.0000000000000000 0.0000000000000000 0.0
0.0000000000000000 0.0000000000000000 0.0
0.0000000000000000 0.0000000000000000 0.0
0.0000000000000000 0.0000000000000000 0.0
0.0000000000000000 0.0000000000000000 0.0
0.0000000000000000 0.0000000000000000 0.0
0.0000000000000000 0.0000000000000000 0.0
0.0000000000000000 0.0000000000000000 0.0
0.0000000000000000 0.0000000000000000 0.0
0.0000000000000000 0.0000000000000000 0.0
0.0000000000000000 0.0000000000000000 0.0
0.0000000000000000 0.0000000000000000 0.0
0.0000000000000000 0.0000000000000000 0.0
0.0000000000000000 0.0000000000000000 0.0
0.0000000000000000 0.0000000000000000 0.0
0.0000000000000000 0.0000000000000000 0.0
0.0000000000000000 0.0000000000000000 0.0
0.0000000000000000 0.0000000000000000 0.0
0.0000000000000000 0.0000000000000000 0.0
0.0000000000000000 0.0000000000000000 0.0
0.0000000000000000 0.0000000000000000 0.0
0.0000000000000000 0.0000000000000000 0.0
0.0000000000000000 0.0000000000000000 0.0
0.0000000000000000 0.0000000000000000 0.0
0.0000000000000000 0.0000000000000000 0.0
0.0000000000000000 0.0000000000000000 0.0
0.0000000000000000 0.0000000000000000 0.0
0.8274547999879883 -0.1284640480266963 0.0
0.0000000000000000 0.0000000000000000 0.0
0.0000000000000000 0.0000000000000000 0.0
0.0000000000000000 0.0000000000000000 0.0
0.0000000000000000 0.0000000000000000 0.0
0.0000000000000000 0.0000000000000000 0.0
0.0000000000000000 0.0000000000000000 0.0
0.0000000000000000 0.0000000000000000 0.0
0.0000000000000000 0.0000000000000000 0.0
0.0000000000000000 0.0000000000000000 0.0
0.0000000000000000 0.0000000000000000 0.0
0.0000000000000000 0.0000000000000000 0.0
0.0000000000000000 0.0000000000000000 0.0
0.0000000000000000 0.0000000000000000 0.0
0.0000000000000000 0.0000000000000000 0.0
0.0000000000000000 0.0000000000000000 0.0
0.0000000000000000 0.0000000000000000 0.0
0.0000000000000000 0.0000000000000000 0.0
0.0000000000000000 0.0000000000000000 0.0
0.0000000000000000 0.0000000000000000 0.0
0.0000000000000000 0.0000000000000000 0.0
0.0000000000000000 0.0000000000000000 0.0
0.0000000000000000 0.0000000000000000 0.0
0.0000000000000000 0.0000000000000000 0.0
0.0000000000000000 0.0000000000000000 0.0
0.0000000000000000 0.0000000000000000 0.0
0.0000000000000000 0.0000000000000000 0.0
0.0000000000000000 0.0000000000000000 0.0
0.0000000000000000 0.0000000000000000 0.0
0.0000000000000000 0.0000000000000000 0.0
0.0000000000000000 0.0000000000000000 0.0
0.0000000000000000 0.0000000000000000 0.0
0.0000000000000000 0.0000000000000000 0.0
0.0000000000000000 0.0000000000000000 0.0
0.0000000000000000 0.0000000000000000 0.0
0.0000000000000000 0.0000000000000000 0.0
0.0000000000000000 0.0000000000000000 0.0
0.0000000000000000 0.0000000000000000 0.0
0.0000000000000000 0.0000000000000000 0.0
0.0000000000000000 0.0000000000000000 0.0
0.0000000000000000 0.0000000000000000 0.0
0.0000000000000000 0.0000000000000000 0.0
0.0000000000000000 0.0000000000000000 0.0
0.0000000000000000 0.0000000000000000 0.0
0.0000000000000000 0.0000000000000000 0.0
0.0000000000000000 0.0000000000000000 0.0
0.0000000000000000 0.0000000000000000 0.0
1.0000000000000000 0.0000000000000000 0.0
1.0000000000000000 0.0000000000000000 0.0
1.0000000000000000 0.0000000000000000 0.0
1.0000000000000000 0.0000000000000000 0.0
1.0000000000000000 0.0000000000000000 0.0
1.0000000000000000 0.0000000000000000 0.0
1.0000000000000000 0.0000000000000000 0.0
1.0000000000000000 0.0000000000000000 0.0
1.0000000000000000 0.0000000000000000 0.0
0.0000000000000000 0.0000000000000000 0.0
0.0000000000000000 0.0000000000000000 0.0
0.0000000000000000 0.0000000000000000 0.0
0.0000000000000000 0.0000000000000000 0.0
0.0000000000000000 0.0000000000000000 0.0
0.0000000000000000 0.0000000000000000 0.0
0.0000000000000000 0.0000000000000000 0.0
0.0000000000000000 0.0000000000000000 0.0
0.0000000000000000 0.0000000000000000 0.0
0.0000000000000000 0.0000000000000000 0.0
0.0000000000000000 0.0000000000000000 0.0
0.0000000000000000 0.0000000000000000 0.0
0.0000000000000000 0.0000000000000000 0.0
0.0000000000000000 0.0000000000000000 0.0
0.0000000000000000 0.0000000000000000 0.0
0.0000000000000000 0.0000000000000000 0.0
0.0000000000000000 0.0000000000000000 0.0
0.0000000000000000 0.0000000000000000 0.0
0.0000000000000000 0.0000000000000000 0.0
0.0000000000000000 0.0000000000000000 0.0
0.0000000000000000 0.0000000000000000 0.0
0.0000000000000000 0.0000000000000000 0.0
0.0000000000000000 0.0000000000000000 0.0
0.0000000000000000 0.0000000000000000 0.0
0.0000000000000000 0.0000000000000000 0.0
0.0000000000000000 0.0000000000000000 0.0
0.0000000000000000 0.0000000000000000 0.0
0.0000000000000000 0.0000000000000000 0.0
0.0000000000000000 0.0000000000000000 0.0
0.0000000000000000 0.0000000000000000 0.0
0.0000000000000000 0.0000000000000000 0.0
0.0000000000000000 0.0000000000000000 0.0
0.0000000000000000 0.0000000000000000 0.0
0.0000000000000000 0.0000000000000000 0.0
0.0000000000000000 0.0000000000000000 0.0
0.0000000000000000 0.0000000000000000 0.0
0.0000000000000000 0.0000000000000000 0.0
0.0000000000000000 0.0000000000000000 0.0
0.0000000000000000 0.0000000000000000 0.0
0.0000000000000000 0.0000000000000000 0.0
0.0000000000000000 0.0000000000000000 0.0
0.0000000000000000 0.0000000000000000 0.0
0.0000000000000000 0.0000000000000000 0.0
0.0000000000000000 0.0000000000000000 0.0
0.0000000000000000 0.0000000000000000 0.0
0.0000000000000000 0.0000000000000000 0.0
0.0000000000000000 0.0000000000000000 0.0
0.0000000000000000 0.0000000000000000 0.0
0.0000000000000000 0.0000000000000000 0.0
1.0709424523525437 -0.4442700009186342 0.0
0.9732119913844960 -0.1731075613468969 0.0
0.9814670104792312 -0.0257451441578750 0.0
1.0726299764538481 0.3613452136545504 0.0
1.2192978624365078 0.0032553498480397 0.0
1.2687693385067877 -0.0526872412245216 0.0
1.3224668537517208 -0.1187214387606118 0.0
1.1914688104707629 -0.0580558049135860 0.0
1.2882438476875420 -0.0776074811675172 0.0
1.4304080003898079 -0.0900840482259465 0.0
1.4995886301288857 -0.0200444582471468 0.0
1.4708882785993955 0.0139067285582769 0.0
1.5411196235977227 0.0804855139071048 0.0
1.4704350136553761 -0.1110144926789669 0.0
1.2198710851031438 -0.0046510562314650 0.0
1.2753004125954941 -0.0901154190029802 0.0
1.2030809880305524 0.1511825032714155 0.0
1.5407284825403706 0.0635819536035364 0.0
1.5236317154272563 0.0181441230427025 0.0
1.2120109851607419 -0.0612099585803268 0.0
1.2803097935841661 -0.0540703393320505 0.0
1.1968050755361321 -0.0183501254259850 0.0
1.5216119672419008 -0.0496647463714242 0.0
1.5702789083450217 0.0430315238407126 0.0
1.1339788853515724 0.0718073458513140 0.0
1.1977848789882117 -0.1768092921636108 0.0
1.4983536430610933 0.0206580480063294 0.0
1.5006668666200020 -0.0196913392325269 0.0
1.5297286246593473 0.0339309411744839 0.0
1.5520955008963828 0.0150509015477639 0.0
1.3299969157642952 -0.1338707412335434 0.0
1.4923377386105452 0.0009371650740848 0.0
1.6507401112063969 0.0247501999757978 0.0
1.3216229544840388 0.1143129789309746 0.0
1.2541341869771332 -0.0302333884995548 0.0
1.3689056824216999 -0.0398863492754382 0.0
1.2915304536072787 -0.1420743125866643 0.0
1.4660452400838986 0.0917485129238983 0.0
1.5173841962040555 -0.0002610948489893 0.0
1.6260447706467538 -0.0997871845818284 0.0
1.6820836517327740 -0.0426950177656888 0.0
1.2300039005933341 -0.0601160481121883 0.0
1.5893460636322376 -0.0172632966383644 0.0
1.0969868288930196 0.0410497015128537 0.0
1.0109080286567191 -0.0022933952025508 0.0
1.3600243213808902 -0.0765446646855807 0.0
1.0389650025097696 -0.0284426739035364 0.0
1.0037690606097351 -0.0481943782885959 0.0
1.1278429013980520 -0.0036743895422615 0.0
1.2119698484947055 -0.0286681979876317 0.0
1.7863098445400127 -0.1309606759188288 0.0
1.2986340293287435 0.0017398767123839 0.0
1.0658157809762632 -0.0657018852484598 0.0
1.2911426891415607 -0.0680987146020528 0.0
1.3659276969618175 0.0341264588990090 0.0
1.3214893212801893 0.0058176059619046 0.0
1.2489879782025917 -0.0215280154716373 0.0
1.0605606817689162 -0.0184377642005869 0.0
1.1667965183809297 -0.0228888861536477 0.0
1.2625133796874288 0.0151722731221385 0.0
1.4351016999800732 -0.0681849553722706 0.0
1.2389348118427481 -0.0208288885871735 0.0
1.2230184520575174 -0.1828111131479870 0.0
1.1487248631722669 0.2878333391472709 0.0
1.0770736776732044 0.1574088059440215 0.0
1.2873681347827348 -0.0507516818869239 0.0
1.2170594808449984 0.0513909823471872 0.0
1.4015257731795692 0.0594178559791797 0.0
1.2368781625369580 0.0171054907138682 0.0
1.7353755493136838 0.0635144854556864 0.0
1.4652378121578460 0.0060986692635977 0.0
1.2437972930118169 -0.0340065403585008 0.0
1.0239346750111047 -0.0441651290152338 0.0
1.1538172631949395 -0.0352516739538116 0.0
1.5952000763977328 -0.1308571717863606 0.0
1.3071031385739467 0.0504220900622943 0.0
1.4376043163759624 0.0695700839322696 0.0
1.2592059248473149 -0.0290057548264832 0.0
1.2501330430478816 -0.0379954140728094 0.0
1.5165545989370164 -0.0390012177136507 0.0
1.5945477028184767 0.0413507545356682 0.0
1.2376742623947812 0.0024531406649265 0.0
1.2894898412312734 -0.0681319545736359 0.0
1.1284044768892996 -0.0704296562915746 0.0
1.0619362817614513 -0.0651563990836029 0.0
1.3709176276530681 -0.1231490757553083 0.0
1.2473263749698298 -0.1106434881177769 0.0
1.5767025179124567 0.0117927823481414 0.0
0.7560654688967557 0.0235439831793202 0.0
0.9755136188927994 0.0740592459706169 0.0
1.6608684511834930 0.0159904753411428 0.0
1.2534336258027241 0.0019127761160310 0.0
1.0237565226707159 -0.0172896354316953 0.0
1.2405164342312012 -0.0606387422688207 0.0
1.2173360892099196 0.0086556714442841 0.0
1.1483273322871348 -0.2484672764070943 0.0
0.9531201847268992 0.0355172913271922 0.0
1.5744083024229680 0.0105804720778082 0.0
1.6487602213755941 -0.0114563715900246 0.0
0.9832841135675363 0.0433443907699722 0.0
1.5907273630141776 0.0546476704367426 0.0
1.0859369877507372 -0.1298911152884229 0.0
1.2335794449735051 0.0291288664438295 0.0
1.1505205784255106 -0.0319760347834769 0.0
1.2439309222347450 0.0206705440662471 0.0
1.6539341551506361 -0.0262652752655449 0.0
1.3447854921891846 -0.1776464045377005 0.0
1.4336083383413969 0.0393173046967573 0.0
1.4496940862552670 0.0839053128697975 0.0
1.3396621115856515 -0.0533401398605799 0.0
0.7529245327024163 -0.0878410527212300 0.0
1.2967057048733894 -0.1173616273618854 0.0
0.7000569932232045 -0.0087393766954178 0.0
1.2501485067795506 -0.0735504979647621 0.0
1.0390235243441042 0.0323298196368885 0.0
1.1702073867240821 -0.0051984555635656 0.0
1.1818109118400688 0.2150149168376464 0.0
1.1803639741764997 0.0643187516071582 0.0
0.8630657080930381 0.0166073902813518 0.0
1.2246349010830786 -0.0621527202999934 0.0
0.7356497102213914 0.0021072463064808 0.0
1.6356278366695365 0.0039774299050265 0.0
1.0210727180761852 0.0761360303424607 0.0
1.2846998480675282 -0.0867296668424171 0.0
1.1326689653968451 0.0019798013976065 0.0
1.4283962665506269 -0.1262497842486862 0.0
0.6672405342531147 -0.0454139259630017 0.0
1.1674409137852577 -0.0748144731373350 0.0
1.2211911890102496 -0.0673542839741709 0.0
1.2552484092820790 -0.0894276065392324 0.0
1.6147813756294651 -0.0122511168808402 0.0
1.5884065304386541 0.0458735554164605 0.0
1.0153448145553257 0.0306075238326079 0.0
1.2453106151857249 -0.0381447335789470 0.0
0.8088244597182025 0.0712819417463507 0.0
0.6359431265752913 -0.0018201452595358 0.0
0.5614863550507809 0.0288940390728949 0.0
1.2704810562084385 -0.0627264580024216 0.0
0.6843603495209265 0.1337491443807278 0.0
0.7404410923694730 -0.0072700041326532 0.0
1.4832948218088697 0.0135611003247468 0.0
1.2928533416048338 -0.0573018590597363 0.0
1.2303049964309050 -0.0326557715985102 0.0
1.5294641716907282 0.0540940497395944 0.0
1.2659647616933589 -0.0486737548778307 0.0
1.5629754045300523 0.0289999376368403 0.0
1.1922261257018909 0.0621988238230640 0.0
1.1272979295054499 -0.2044222690054596 0.0
1.1558558487045321 0.1242540262727598 0.0
1.1053560027560267 0.2049665796343118 0.0
1.0720686355945575 -0.0472286230675720 0.0
1.1828378439813823 0.0280683346784735 0.0
0.9345512447998127 0.0357383103553926 0.0
0.6815895888376754 0.1095153356985847 0.0
0.9925593041764207 -0.0115482522342246 0.0
1.2423648065284090 -0.0245862980890652 0.0
0.7767910826359574 0.0700539691412869 0.0
1.2241483420897654 0.0248499217780253 0.0
1.2668416981230248 -0.0427774930560840 0.0
0.9815537319677592 -0.0075140620474058 0.0
1.2635423005840958 0.0313661096226861 0.0
1.4785440157113765 0.0434775316745196 0.0
1.1869662889596708 -0.1033272673534492 0.0
1.2743101733247331 -0.0810969656424219 0.0
0.6402918260116024 0.1137260012574931 0.0
0.6405036678254989 0.0879658994737756 0.0
0.8472877571722123 -0.0104617557443418 0.0
1.4116080064065928 -0.0850173642083560 0.0
1.2780984183686706 -0.0540965343745377 0.0
0.6657702189770895 0.1291450595780093 0.0
0.7626641371495883 -0.0373833253174127 0.0
1.1129976636621117 0.0158441321111838 0.0
1.3687251461273324 -0.0760952380126906 0.0
0.9938031682633097 -0.0049227939343906 0.0
1.1907180888165947 0.0105497098390836 0.0
1.2619293534922871 -0.0510386400541210 0.0
0.9569823808068373 0.0078048725280484 0.0
0.8780334027653129 0.0666350684265581 0.0
1.3222256559082508 0.0007382399714087 0.0
0.7940738022231681 -0.0261860416202116 0.0
1.5398661252882537 -0.0232355407809583 0.0
0.7808629227763783 0.0206059711344047 0.0
0.7846119129417569 -0.0254408175117836 0.0
1.2396108483842752 -0.0553125631256704 0.0
1.2534116610092967 -0.0143593827180439 0.0
1.0013820577514490 0.0051315984105364 0.0
0.7049280360996280 0.1520487951210842 0.0
0.8998189460358834 -0.0018062582765309 0.0
1.2056942160075768 -0.0282932084793069 0.0
0.8601211147515698 0.0646133275329695 0.0
1.1955686458889767 0.0976682910019833 0.0
1.1861999988994441 -0.0606570271974347 0.0
0.7008832415396675 0.0188403324044610 0.0
1.4556965219919529 -0.0153464417887981 0.0
0.9195264422656626 -0.0096180336242439 0.0
1.4690107428121206 -0.0195450969322767 0.0
0.5434997167199505 -0.0405073776503079 0.0
1.3249697420110844 -0.1339599609301624 0.0
1.5152539328149632 -0.0144269765985662 0.0
0.6730269702703358 0.1013742293691800 0.0
0.7919175751039326 -0.0248737489383703 0.0
1.5388423061353300 0.0687268412574747 0.0
0.9586717790126594 0.0651930679370227 0.0
1.5169075522035957 0.0483731649496947 0.0
1.1218822528939072 -0.0511262007827887 0.0
0.8188134899130979 -0.0537884445975272 0.0
0.7460570260317435 -0.0161286276663459 0.0
1.0053371754826104 -0.0242322481798653 0.0
0.9907867320799212 0.0290060706152267 0.0
1.4641990325866792 0.0106343498561689 0.0
0.5921195222236129 0.0349086438680975 0.0
0.8768747130145379 -0.0571022478534959 0.0
0.8465975991521575 0.0532024317526591 0.0
1.4127884888273703 0.0650512428730617 0.0
0.8114156872599603 -0.1923501834707327 0.0
0.8275034571822996 -0.0242498280750607 0.0
0.5620936606610076 -0.0441118817965502 0.0
1.1627267796269418 -0.0157391175963434 0.0
0.7681399554534031 0.1620229916888723 0.0
0.8917229244357731 0.0427035985336040 0.0
1.2521726653282084 -0.1290842464966511 0.0
0.7864929408404900 -0.0141315552614415 0.0
0.9080638568045376 -0.0031019928564582 0.0
1.1177692111215176 -0.0426733842077967 0.0
0.8009972170094544 -0.0229259636820631 0.0
0.7685795946215389 -0.0454800355410060 0.0
1.4353623017665400 0.0329109545885077 0.0
0.8167451143948398 -0.0290896288310295 0.0
1.0331696880902610 -0.0469167344670039 0.0
0.8392125667718343 0.0546453396750230 0.0
1.2906578784269065 -0.0672422750072671 0.0
0.6713360253582600 -0.0129319293425443 0.0
0.5039065299579087 0.0103828553070844 0.0
1.1334945534606209 -0.0352427412159760 0.0
0.8499011495916963 0.0903085955860446 0.0
0.7924054519762415 -0.0179208818195247 0.0
0.9540605889796976 0.0539451276041318 0.0
1.2149499113947486 -0.0163398937806240 0.0
0.6955402824334802 -0.0172224271651112 0.0
1.1934371484391264 0.1655686937261157 0.0
1.4457119411462072 -0.0004678954093892 0.0
0.7141355593749219 -0.0105525168383232 0.0
1.1272600015772247 0.0070466040257142 0.0
1.2046063718988635 -0.0376190270867172 0.0
1.1623499989013448 -0.0425345427474991 0.0
1.2793447199268382 -0.0880948486360199 0.0
0.5534665270008466 0.1795447014191815 0.0
1.7118262910957458 0.0204313090178340 0.0
1.2216940418035136 0.0199659191677208 0.0
0.6029270901394412 0.0528364676682366 0.0
1.3112752449440177 -0.1028111029792926 0.0
1.4305496311739789 -0.0959108791773076 0.0
0.6814057755942469 -0.0027543915691938 0.0
1.0221709741097389 0.0007486011409767 0.0
0.6703914017136697 -0.0395251249645529 0.0
0.9506026019183709 -0.0771406124064595 0.0
0.7879479618712172 -0.0557630243578155 0.0
0.4797440817203369 0.1896881320063914 0.0
1.1649685687185189 0.1705490224317242 0.0
1.5906606895928808 0.0149552518049409 0.0
0.6326361545150679 0.1955032122966379 0.0
1.5469265956933378 -0.0491116664743477 0.0
1.7390550933510416 0.0838061661710610 0.0
0.6196040536798170 0.1754824163257754 0.0
1.4599354417144352 0.0446830486340339 0.0
1.3818444729189714 -0.1406986000207434 0.0
0.9348213841316120 0.2409506945406968 0.0
1.2994689234660468 -0.0169216435600244 0.0
1.3230382299875239 0.0155918954668735 0.0
0.7815690407988323 0.0896902688743993 0.0
1.3323071684981054 -0.0920884110120263 0.0
0.7388635483593808 -0.0556744765440193 0.0
0.6744616980030979 0.1644408331053673 0.0
0.4894422648214424 0.0298805781125171 0.0
1.2470176927379946 -0.0342503594886868 0.0
0.8957565635000014 -0.2663315717377155 0.0
1.3974521936036819 0.0894641000714757 0.0
1.2909387789250688 -0.0795079017617484 0.0
0.5884938525197523 -0.0110597876612710 0.0
0.6124541656615621 0.0469262884523598 0.0
0.7102353114258643 0.0169614890159035 0.0
1.1050878825899031 0.0257780604190687 0.0
1.1861716395049140 0.2270087969134393 0.0
0.6017330847614348 -0.0391101178036911 0.0
1.1868946584074083 -0.0395370970958339 0.0
0.6046574543897111 0.0443864787138049 0.0
1.5688364615107731 0.0362948991976483 0.0
0.5160707026225352 0.2220208694901035 0.0
0.7720962934364786 -0.1169010560657579 0.0
1.5190949375169909 -0.0455719572950031 0.0
1.2631383348572292 0.0288770498309231 0.0
1.4126337140205851 -0.1156655900589860 0.0
0.6964417975912290 0.0054562514785952 0.0
0.8673565658148561 -0.0342082200754686 0.0
1.4258036837109329 -0.0959169008025473 0.0
1.2628707857245547 -0.0493732930099061 0.0
1.0172377265489303 0.0608280261726965 0.0
1.4271003370097883 0.0350820196049211 0.0
1.2612743807121489 -0.0637591021658388 0.0
1.2072854429147433 0.0988884521284006 0.0
0.9816787812480086 -0.0051278403248404 0.0
0.7408073461192368 -0.0224387334032092 0.0
0.6719891783850229 -0.0451934390837031 0.0
1.2912844152172134 -0.0679023623613914 0.0
1.2650005094942807 -0.0315526010484046 0.0
1.0956709973163514 0.1021633749109763 0.0
0.4149233921213162 0.0297335228742989 0.0
1.4174756193743672 -0.1039784635462868 0.0
0.3663482794776216 0.1091462713981713 0.0
0.6987494990623027 0.1164261123449431 0.0
1.1588967446938949 -0.0120754256183440 0.0
0.5498864497342110 -0.1197776463929413 0.0
1.1466049829909175 -0.2947204790087448 0.0
1.2902766757492599 -0.0576613243102072 0.0
1.6001548852652769 -0.0150379266102969 0.0
0.7283162446811826 0.1097737321143604 0.0
1.5247768583043095 -0.0583394295744013 0.0
0.9159536026730468 -0.0315862832143618 0.0
1.3005931418975671 -0.0510745981389617 0.0
0.9205512953813133 -0.0266240609734047 0.0
0.5650033252539090 0.1755117045170598 0.0
0.9136124872519590 -0.0511858642764047 0.0
1.0366231591555739 -0.0613629997048015 0.0