# vtk DataFile Version 3.0
LucasCarvalhoTCC Results
ASCII

DATASET POLYDATA
FIELD FieldData 1
TIME 1 1 double
2.3000000000000003

POINTS 600 float
0.0 2.0 0.0
0.25 1.989125 0.0
0.5 1.958 0.0
0.75 1.908875 0.0
1.0 1.844 0.0
1.25 1.765625 0.0
1.5 1.676 0.0
1.75 1.577375 0.0
2.0 1.472 0.0
2.25 1.362125 0.0
2.5 1.25 0.0
2.75 1.137875 0.0
3.0 1.028 0.0
3.25 0.922625 0.0
3.5 0.8240000000000001 0.0
3.75 0.734375 0.0
4.0 0.6560000000000001 0.0
4.25 0.5911249999999999 0.0
4.5 0.542 0.0
4.75 0.510875 0.0
5.0 0.5 0.0
5.25 0.5036250000000004 0.0
5.5 0.5140000000000002 0.0
5.75 0.5303750000000003 0.0
6.0 0.5519999999999996 0.0
6.25 0.578125 0.0
6.5 0.6080000000000005 0.0
6.75 0.6408749999999999 0.0
7.0 0.6760000000000002 0.0
7.25 0.7126249999999992 0.0
7.5 0.75 0.0
7.75 0.7873750000000004 0.0
8.0 0.8239999999999994 0.0
8.25 0.8591250000000001 0.0
8.5 0.8919999999999999 0.0
8.75 0.921875 0.0
9.0 0.9479999999999991 0.0
9.25 0.9696250000000011 0.0
9.5 0.9859999999999984 0.0
9.75 0.9963750000000013 0.0
10.0 1.0 0.0
0.0 0.0 0.0
10.0 0.0 0.0
0.124999999999674 1.994562500000014 0.0
0.3749999999999947 1.973562500000001 0.0
0.6249999999999918 1.933437500000002 0.0
0.874999999999979 1.876437500000006 0.0
1.124999999999963 1.804812500000012 0.0
1.374999999999944 1.72081250000002 0.0
1.624999999999985 1.626687500000006 0.0
1.874999999999953 1.52468750000002 0.0
2.124999999999936 1.417062500000028 0.0
2.374999999999952 1.306062500000022 0.0
2.624999999999919 1.193937500000036 0.0
2.87499999999992 1.082937500000035 0.0
3.124999999999946 0.9753125000000229 0.0
3.374999999999948 0.8733125000000204 0.0
3.624999999999972 0.77918750000001 0.0
3.874999999999963 0.6951875000000118 0.0
4.124999999999968 0.6235625000000082 0.0
4.394409538298571 0.5627485257243309 0.0
4.583333333333322 0.5316250000000015 0.0
4.666666666666668 0.5212499999999999 0.0
4.833333333333334 0.50725 0.0
4.916666666666667 0.503625 0.0
5.083333333333334 0.5012083333333335 0.0
5.166666666666666 0.502416666666667 0.0
5.333333333333334 0.5070833333333337 0.0
5.416666666666667 0.510541666666667 0.0
5.583333333333334 0.5194583333333336 0.0
5.666666666666666 0.5249166666666669 0.0
5.833333333333338 0.5375833333333339 0.0
5.916666666666661 0.544791666666666 0.0
6.105781577147724 0.5630541748119369 0.0
6.375 0.5930625000000003 0.0
6.624999999999988 0.6244374999999988 0.0
6.874999999999994 0.6584374999999991 0.0
7.125 0.6943124999999997 0.0
7.375 0.7313124999999996 0.0
7.624999999999994 0.7686874999999992 0.0
7.875 0.8056874999999999 0.0
8.125 0.8415624999999998 0.0
8.374999999999991 0.8755624999999989 0.0
8.624999999999995 0.9069374999999993 0.0
8.874999999999995 0.9349374999999991 0.0
9.125 0.9588125000000001 0.0
9.375 0.9778124999999998 0.0
9.625 0.9911874999999999 0.0
9.875 0.9981875000000007 0.0
0.0 1.799999999999167 0.0
0.0 1.6 0.0
0.0 1.400000000001387 0.0
0.0 1.200000000002774 0.0
0.0 1.000000000004117 0.0
0.0 0.8000000000033287 0.0
0.0 0.6000000000024965 0.0
0.0 0.4000000000016644 0.0
0.0 0.200000000000832 0.0
0.199999999999856 0.0 0.0
0.3999999999996677 0.0 0.0
0.5999999999994683 0.0 0.0
0.7999999999993286 0.0 0.0
0.9999999999991888 0.0 0.0
1.199999999999033 0.0 0.0
1.399999999998576 0.0 0.0
1.599999999997992 0.0 0.0
1.799999999997408 0.0 0.0
1.999999999996825 0.0 0.0
2.199999999996241 0.0 0.0
2.399999999995657 0.0 0.0
2.599999999995073 0.0 0.0
2.79999999999449 0.0 0.0
2.999999999993906 0.0 0.0
3.199999999993322 0.0 0.0
3.399999999992738 0.0 0.0
3.599999999992154 0.0 0.0
3.799999999991571 0.0 0.0
3.999999999991022 0.0 0.0
4.199999999991187 0.0 0.0
4.399999999991491 0.0 0.0
4.599999999991795 0.0 0.0
4.799999999992099 0.0 0.0
4.999999999992403 0.0 0.0
5.199999999992706 0.0 0.0
5.39999999999301 0.0 0.0
5.599999999993313 0.0 0.0
5.799999999993618 0.0 0.0
5.999999999993922 0.0 0.0
6.199999999994227 0.0 0.0
6.39999999999453 0.0 0.0
6.599999999994833 0.0 0.0
6.799999999995138 0.0 0.0
6.999999999995442 0.0 0.0
7.199999999995747 0.0 0.0
7.39999999999605 0.0 0.0
7.599999999996353 0.0 0.0
7.799999999996658 0.0 0.0
7.999999999996962 0.0 0.0
8.199999999997265 0.0 0.0
8.399999999997569 0.0 0.0
8.599999999997873 0.0 0.0
8.799999999998176 0.0 0.0
8.99999999999848 0.0 0.0
9.199999999998786 0.0 0.0
9.399999999999089 0.0 0.0
9.599999999999392 0.0 0.0
9.799999999999697 0.0 0.0
10.0 0.1999999999995579 0.0
10.0 0.3999999999989749 0.0
10.0 0.5999999999989468 0.0
10.0 0.7999999999994734 0.0
0.913963423524136 0.9126937851647636 0.0
1.629657910441747 0.8286436141773268 0.0
2.300136613917738 0.6369890708869279 0.0
0.5989085226155619 1.38125543468559 0.0
1.274155622640533 1.242773398230304 0.0
2.860215383945273 0.5217401976756945 0.0
9.469653920408135 0.4910067017840992 0.0
8.984679546317787 0.4696119782494839 0.0
8.499397693277212 0.4463630640980716 0.0
3.270918412356206 0.4522692359356972 0.0
1.223039611612243 0.5146439900227544 0.0
2.024812732135938 1.00818256045515 0.0
0.5365376864627701 0.5434316309416508 0.0
8.114834335444021 0.4602948767329583 0.0
7.742261962994204 0.4117304941858466 0.0
0.9443382341364558 1.456061359265878 0.0
1.665275621558886 1.201744468407863 0.0
1.89566112584099 0.4397284596316843 0.0
3.691409759982064 0.3560936332572802 0.0
7.368457390036411 0.3792926046732459 0.0
0.5071184951703254 0.9340893429149442 0.0
0.3822273842356539 1.647625881691675 0.0
5.916285335387544 0.2564903116750689 0.0
5.628860531758535 0.2582323053999509 0.0
5.380471017960128 0.2502349014663197 0.0
5.139244585769944 0.2549145445969738 0.0
2.686085237972266 0.8031095648160084 0.0
4.507599040026292 0.263176944655695 0.0
6.983755234374982 0.3380000000001097 0.0
9.720925955181613 0.6635813325201156 0.0
1.288006195687152 0.8759679848503046 0.0
9.20556379558699 0.6923669083350594 0.0
2.319913492084225 0.9512500928262699 0.0
8.73203612228155 0.6151508464420534 0.0
4.868679481352366 0.2526598053940744 0.0
4.10358044398202 0.3012437332986487 0.0
6.602422946953217 0.3126221952225479 0.0
2.534693527909069 0.3583319619586092 0.0
6.193332317503376 0.2894654215336858 0.0
0.8804088217382579 0.3735513844182569 0.0
0.7663303172393539 1.679065267574722 0.0
3.081211528283084 0.6968015573146217 0.0
1.241762689885858 1.521465072418641 0.0
1.573472750763779 0.3374689934575129 0.0
1.475107933015155 1.403918544935278 0.0
0.8212739503602162 1.195790902469637 0.0
4.681049549092561 0.3558177014380842 0.0
9.439519900118443 0.7366884444350511 0.0
2.201393787062887 0.3261463175998884 0.0
2.015369189818184 0.7109460688851087 0.0
8.32727069655695 0.6360373328685593 0.0
8.961488632119996 0.7119124617705204 0.0
9.22773266034565 0.3109430611770705 0.0
0.3000513553073295 1.178778127105867 0.0
1.91985473842554 1.233084801189704 0.0
8.749827252515535 0.3049638092131281 0.0
3.50551132590258 0.5576614504134195 0.0
3.040500962406976 0.290446660105673 0.0
9.72097519930939 0.3037986529514364 0.0
0.3073166349239687 0.3249300260882615 0.0
0.2948185331392187 0.7229775107826154 0.0
1.46029425821417 1.06552904833304 0.0
0.8085718129253527 0.673531272847494 0.0
7.913326191751847 0.5738936378911789 0.0
8.295349499871781 0.2556682497524391 0.0
4.31359646688283 0.3665214152100782 0.0
7.542842082022704 0.5249918217576657 0.0
1.058357552227335 1.116692590939024 0.0
2.214297272750292 1.159898327391242 0.0
2.901187336648686 0.8282146771898153 0.0
3.933498145061447 0.4325241689837319 0.0
7.956006969037984 0.2667411694088205 0.0
7.172393179434975 0.4835114022190097 0.0
1.440243631802057 0.6689433452646625 0.0
3.458541882144431 0.2581755850286561 0.0
5.791617360065465 0.3978542524532168 0.0
5.981529865241493 0.3900667299390458 0.0
1.083462543944253 0.7203994120564634 0.0
1.78518471978951 1.008552691762234 0.0
2.77360122246243 0.2689852172070111 0.0
2.565134389978369 0.9928826788184764 0.0
2.543046005790158 0.6034091352176242 0.0
3.293038780485421 0.6769811703257343 0.0
6.790787388653942 0.4353933509634578 0.0
1.140204059461831 0.2538227257007896 0.0
0.6242104065654487 0.2738473600765566 0.0
6.393430278703709 0.3766405270445946 0.0
8.533059390324546 0.6950580701614406 0.0
0.9961263693263854 1.612128843772703 0.0
1.697598586607002 0.5781950992180334 0.0
8.087930458724863 0.6517815437732153 0.0
0.2748906317360928 1.770749713716887 0.0
0.5785110002099415 1.757022387413085 0.0
5.550004842562332 0.3852675728674634 0.0
4.948161884155141 0.3480305424737933 0.0
1.741244734175577 1.381979611033466 0.0
5.312408927381063 0.3621256994047111 0.0
0.2492139438157334 1.453132031680879 0.0
7.597720022451821 0.2370268512906596 0.0
9.471021754366422 0.2472916581956264 0.0
7.714083843672875 0.600212897672991 0.0
4.520815862079482 0.3946753115680038 0.0
2.47356661122767 0.8007389356831706 0.0
7.325494311403363 0.528948935030723 0.0
7.147005275585743 0.2709670165999667 0.0
3.758046446289313 0.5474783841545341 0.0
3.893717059615281 0.1664960777568404 0.0
2.152835534199412 0.8614028741175742 0.0
8.995993312441625 0.1933410497113667 0.0
1.077676137392001 1.368204555688504 0.0
0.2429906229817933 0.9816066505657851 0.0
0.6261765586985547 1.180540007244081 0.0
9.81151801018651 0.816223424030724 0.0
0.6725442903064565 0.8425384371773644 0.0
1.74584086891446 0.2617492458514414 0.0
0.7667820686164357 1.440842670056678 0.0
8.539133693395232 0.1910926418035274 0.0
5.129145653242096 0.3632579123815574 0.0
6.816538849831732 0.2013284992826486 0.0
2.108503954619862 0.5359795950847274 0.0
6.933669557130528 0.4980836483776163 0.0
3.071406705674529 0.4919421055852253 0.0
2.001240035874449 0.2292738462614773 0.0
4.782473531509697 0.4061213127162872 0.0
0.5734126310178208 1.536352720889636 0.0
9.796714529589472 0.4898048068674991 0.0
5.678359041645315 0.373719883316694 0.0
5.427661572827738 0.3646059266294788 0.0
2.075214597532947 1.226969224366912 0.0
3.251521478555126 0.2637671977660283 0.0
2.722180837291864 0.9710783334409533 0.0
9.333262390342384 0.8479609887828539 0.0
1.367251332770493 0.2041553944563636 0.0
1.870721433742522 0.7905989208842599 0.0
1.387906762913351 1.555741687747287 0.0
9.559918612869 0.8444052974080497 0.0
9.286795039366257 0.4698254290795815 0.0
[...]
POINT_DATA 600

VECTORS Velocity float
0.0000000000000000 0.0000000000000000 0.0
0.0000000000000000 0.0000000000000000 0.0
0.0000000000000000 0.0000000000000000 0.0
0.0000000000000000 0.0000000000000000 0.0
0.0000000000000000 0.0000000000000000 0.0
0.0000000000000000 0.0000000000000000 0.0
0.0000000000000000 0.0000000000000000 0.0
0.0000000000000000 0.0000000000000000 0.0
0.0000000000000000 0.0000000000000000 0.0
0.0000000000000000 0.0000000000000000 0.0
0.0000000000000000 0.0000000000000000 0.0
0.0000000000000000 0.0000000000000000 0.0
0.0000000000000000 0.0000000000000000 0.0
0.0000000000000000 0.0000000000000000 0.0
0.0000000000000000 0.0000000000000000 0.0
0.0000000000000000 0.0000000000000000 0.0
0.0000000000000000 0.0000000000000000 0.0
0.0000000000000000 0.0000000000000000 0.0
0.0000000000000000 0.0000000000000000 0.0
0.0000000000000000 0.0000000000000000 0.0
0.0000000000000000 0.0000000000000000 0.0
0.0000000000000000 0.0000000000000000 0.0
0.0000000000000000 0.0000000000000000 0.0
0.0000000000000000 0.0000000000000000 0.0
0.0000000000000000 0.0000000000000000 0.0
0.0000000000000000 0.0000000000000000 0.0
0.0000000000000000 0.0000000000000000 0.0
0.0000000000000000 0.0000000000000000 0.0
0.0000000000000000 0.0000000000000000 0.0
0.0000000000000000 0.0000000000000000 0.0
0.0000000000000000 0.0000000000000000 0.0
0.0000000000000000 0.0000000000000000 0.0
0.0000000000000000 0.0000000000000000 0.0
0.0000000000000000 0.0000000000000000 0.0
0.0000000000000000 0.0000000000000000 0.0
0.0000000000000000 0.0000000000000000 0.0
0.0000000000000000 0.0000000000000000 0.0
0.0000000000000000 0.0000000000000000 0.0
0.0000000000000000 0.0000000000000000 0.0
0.0000000000000000 0.0000000000000000 0.0
0.0000000000000000 0.0000000000000000 0.0
0.0000000000000000 0.0000000000000000 0.0
0.8244820174249731 -0.1313605586880858 0.0
0.0000000000000000 0.0000000000000000 0.0
0.0000000000000000 0.0000000000000000 0.0
0.0000000000000000 0.0000000000000000 0.0
0.0000000000000000 0.0000000000000000 0.0
0.0000000000000000 0.0000000000000000 0.0
0.0000000000000000 0.0000000000000000 0.0
0.0000000000000000 0.0000000000000000 0.0
0.0000000000000000 0.0000000000000000 0.0
0.0000000000000000 0.0000000000000000 0.0
0.0000000000000000 0.0000000000000000 0.0
0.0000000000000000 0.0000000000000000 0.0
0.0000000000000000 0.0000000000000000 0.0
0.0000000000000000 0.0000000000000000 0.0
0.0000000000000000 0.0000000000000000 0.0
0.0000000000000000 0.0000000000000000 0.0
0.0000000000000000 0.0000000000000000 0.0
0.0000000000000000 0.0000000000000000 0.0
0.0000000000000000 0.0000000000000000 0.0
0.0000000000000000 0.0000000000000000 0.0
0.0000000000000000 0.0000000000000000 0.0
0.0000000000000000 0.0000000000000000 0.0
0.0000000000000000 0.0000000000000000 0.0
0.0000000000000000 0.0000000000000000 0.0
0.0000000000000000 0.0000000000000000 0.0
0.0000000000000000 0.0000000000000000 0.0
0.0000000000000000 0.0000000000000000 0.0
0.0000000000000000 0.0000000000000000 0.0
0.0000000000000000 0.0000000000000000 0.0
0.0000000000000000 0.0000000000000000 0.0
0.0000000000000000 0.0000000000000000 0.0
0.0000000000000000 0.0000000000000000 0.0
0.0000000000000000 0.0000000000000000 0.0
0.0000000000000000 0.0000000000000000 0.0
0.0000000000000000 0.0000000000000000 0.0
0.0000000000000000 0.0000000000000000 0.0
0.0000000000000000 0.0000000000000000 0.0
0.0000000000000000 0.0000000000000000 0.0
0.0000000000000000 0.0000000000000000 0.0
0.0000000000000000 0.0000000000000000 0.0
0.0000000000000000 0.0000000000000000 0.0
0.0000000000000000 0.0000000000000000 0.0
0.0000000000000000 0.0000000000000000 0.0
0.0000000000000000 0.0000000000000000 0.0
0.0000000000000000 0.0000000000000000 0.0
0.0000000000000000 0.0000000000000000 0.0
0.0000000000000000 0.0000000000000000 0.0
1.0000000000000000 0.0000000000000000 0.0
1.0000000000000000 0.0000000000000000 0.0
1.0000000000000000 0.0000000000000000 0.0
1.0000000000000000 0.0000000000000000 0.0
1.0000000000000000 0.0000000000000000 0.0
1.0000000000000000 0.0000000000000000 0.0
1.0000000000000000 0.0000000000000000 0.0
1.0000000000000000 0.0000000000000000 0.0
1.0000000000000000 0.0000000000000000 0.0
0.0000000000000000 0.0000000000000000 0.0
0.0000000000000000 0.0000000000000000 0.0
0.0000000000000000 0.0000000000000000 0.0
0.0000000000000000 0.0000000000000000 0.0
0.0000000000000000 0.0000000000000000 0.0
0.0000000000000000 0.0000000000000000 0.0
0.0000000000000000 0.0000000000000000 0.0
0.0000000000000000 0.0000000000000000 0.0
0.0000000000000000 0.0000000000000000 0.0
0.0000000000000000 0.0000000000000000 0.0
0.0000000000000000 0.0000000000000000 0.0
0.0000000000000000 0.0000000000000000 0.0
0.0000000000000000 0.0000000000000000 0.0
0.0000000000000000 0.0000000000000000 0.0
0.0000000000000000 0.0000000000000000 0.0
0.0000000000000000 0.0000000000000000 0.0
0.0000000000000000 0.0000000000000000 0.0
0.0000000000000000 0.0000000000000000 0.0
0.0000000000000000 0.0000000000000000 0.0
0.0000000000000000 0.0000000000000000 0.0
0.0000000000000000 0.0000000000000000 0.0
0.0000000000000000 0.0000000000000000 0.0
0.0000000000000000 0.0000000000000000 0.0
0.0000000000000000 0.0000000000000000 0.0
0.0000000000000000 0.0000000000000000 0.0
0.0000000000000000 0.0000000000000000 0.0
0.0000000000000000 0.0000000000000000 0.0
0.0000000000000000 0.0000000000000000 0.0
0.0000000000000000 0.0000000000000000 0.0
0.0000000000000000 0.0000000000000000 0.0
0.0000000000000000 0.0000000000000000 0.0
0.0000000000000000 0.0000000000000000 0.0
0.0000000000000000 0.0000000000000000 0.0
0.0000000000000000 0.0000000000000000 0.0
0.0000000000000000 0.0000000000000000 0.0
0.0000000000000000 0.0000000000000000 0.0
0.0000000000000000 0.0000000000000000 0.0
0.0000000000000000 0.0000000000000000 0.0
0.0000000000000000 0.0000000000000000 0.0
0.0000000000000000 0.0000000000000000 0.0
0.0000000000000000 0.0000000000000000 0.0
0.0000000000000000 0.0000000000000000 0.0
0.0000000000000000 0.0000000000000000 0.0
0.0000000000000000 0.0000000000000000 0.0
0.0000000000000000 0.0000000000000000 0.0
0.0000000000000000 0.0000000000000000 0.0
0.0000000000000000 0.0000000000000000 0.0
0.0000000000000000 0.0000000000000000 0.0
0.0000000000000000 0.0000000000000000 0.0
1.0710944812196572 -0.4622499135009568 0.0
0.9665837003127468 -0.1950706829884820 0.0
0.9837941321607200 -0.0290041893158471 0.0
1.0703980971054232 0.3848314419448022 0.0
1.3371696056582438 0.0032890598966759 0.0
1.4186234564928262 -0.0830535204666689 0.0
1.4426696762960609 -0.1738288335991165 0.0
1.2328796903154349 -0.1032416319820223 0.0
1.3290720539981173 -0.0818375010524205 0.0
1.5210680231678799 -0.1136366434779232 0.0
1.5838997100710506 -0.0289259547631865 0.0
1.5298681106971073 0.0194904042571803 0.0
1.5827764743921493 0.0958141612710061 0.0
1.5091047863039493 -0.1201313442353974 0.0
1.1992231328320504 0.0014307706464819 0.0
1.3417091965142462 -0.0993333279572353 0.0
1.2324509733817104 0.2231469302243603 0.0
1.5831571821504060 0.0714969782831231 0.0
1.5618018685072896 0.0101823948490581 0.0
1.1685033495705002 -0.0506095003079731 0.0
1.2658453820442654 -0.0280028103388959 0.0
1.1615219228520508 -0.0526034659804664 0.0
1.5278053714791167 -0.0561546616382166 0.0
1.5806870834276194 0.0542004836963442 0.0
1.1967328715598167 0.0897499110862036 0.0
1.1459137581938716 -0.2372119146052243 0.0
1.4960989649894305 0.0148877861786731 0.0
1.4961778233112082 -0.0179187356509015 0.0
1.5257008918597157 0.0355224660432219 0.0
1.5476527298611094 0.0132716114975914 0.0
1.3233341954322648 -0.1187141986856853 0.0
1.4873888072611698 0.0095966891345924 0.0
1.6542047272741007 0.0254407909130366 0.0
1.3578237461494376 0.1307773786447894 0.0
1.4062959134101523 -0.0426921845034065 0.0
1.3803325499456405 -0.0477334335321784 0.0
1.3281433314860285 -0.1438660235562182 0.0
1.5079103023103655 0.0926805851086722 0.0
1.5121191116382739 0.0021521249004465 0.0
1.6250226466123363 -0.1061604883424223 0.0
1.6830127863540931 -0.0382550863994555 0.0
1.2070669094573818 -0.0924954041874473 0.0
1.5893969798659207 -0.0199865596818100 0.0
0.9990732945502553 0.0564280497976509 0.0
0.8837566439287615 0.0305237212684233 0.0
1.3801340537947273 -0.0502474017041759 0.0
0.9040473980274354 0.0237140891972336 0.0
0.8880407419470993 -0.0508718162970156 0.0
1.0123108276938484 0.0411803917446090 0.0
1.3063666991141047 -0.0481547784546012 0.0
1.8001094688226400 -0.1358480403360896 0.0
1.2793805266553395 0.0004525622753105 0.0
0.9941890114996726 -0.0677009478788201 0.0
1.4248088277377495 -0.1017760079413440 0.0
1.3653504188336125 0.0404662519241700 0.0
1.3262539006173542 0.0017738681376967 0.0
1.2202146375359233 -0.0208219037676702 0.0
1.0806025419816740 -0.0630137777806877 0.0
1.0814012352656870 0.0160840189052568 0.0
1.2503022898462051 0.0232735598646005 0.0
1.4498131004693691 -0.0621197023354320 0.0
1.2286820020570290 -0.0290271037380868 0.0
1.2049727155092591 -0.2069142034488543 0.0
1.1290833205279243 0.3356122920005728 0.0
1.0982150110772670 0.1954962395084019 0.0
1.4141099799385326 -0.0713601917727136 0.0
1.2924086570176905 0.0889614424972634 0.0
1.4005596729468386 0.0543010381766633 0.0
1.2315759972014315 0.0215386295403597 0.0
1.7382880466634243 0.0680000113473297 0.0
1.4829530762636338 -0.0095623477817449 0.0
1.3622235467652075 -0.0555111756516622 0.0
0.9312797096719390 0.0081012666474570 0.0
1.1020550947663663 -0.0155143828117423 0.0
1.6049494574286585 -0.1335519687652252 0.0
1.3104815815085915 0.0493357683812231 0.0
1.4475291672298289 0.0713728426023899 0.0
1.3669267491836596 -0.0491849832020309 0.0
1.2421984291621371 -0.0434582867879507 0.0
1.5379476383441797 -0.0423840366928754 0.0
1.6088335479358520 0.0406002631186789 0.0
1.3570476500852988 0.0164037297603635 0.0
1.3959004051034383 -0.0862183706717419 0.0
1.0814121041523528 -0.0903166357317966 0.0
0.9841236392925209 -0.0032143796667318 0.0
1.4978366423998257 -0.1720909393992045 0.0
1.2376212356215157 -0.0980822711360492 0.0
1.5843989451463212 0.0134867466813937 0.0
0.6134469555121593 0.0282015940833332 0.0
0.8798098851598769 0.0968656896676675 0.0
1.6626177798099304 0.0134269266171560 0.0
1.2471485042971486 -0.0068888197794929 0.0
0.8899411687803570 0.0230138860498888 0.0
1.3093343865772955 -0.0929882414826212 0.0
1.1930343818065707 0.0055461478462266 0.0
1.1121900841326942 -0.2768956287843938 0.0
0.8337965974215054 0.0371623597178149 0.0
1.5937956940024276 0.0112896428746494 0.0
1.6640581853393215 -0.0094121866573051 0.0
0.8575597444909431 0.0958887813369509 0.0
1.6072125728954851 0.0560662049215258 0.0
1.0913384142068923 -0.2050419025107554 0.0
1.2220858385015756 0.0327494942967950 0.0
1.1018460250507580 -0.0411557679665794 0.0
1.2309573565432119 0.0150464079388990 0.0
1.6696814772581043 -0.0218934941110853 0.0
1.4325346997135329 -0.2109760656772415 0.0
1.4471831247440952 0.0451547620076344 0.0
1.4485785837699399 0.0885122300682183 0.0
1.3479044699879288 -0.0513963415931577 0.0
0.7457126326559730 -0.0906670732200120 0.0
1.4206045892693082 -0.1503214994243446 0.0
0.6580479699003233 -0.0054411644215789 0.0
1.2456444474207142 -0.0645626205131015 0.0
1.0502523224123690 0.0209283822398935 0.0
1.2485391052304635 -0.0247987433835418 0.0
1.1679593681772005 0.2318075508371013 0.0
1.2725127376351906 0.0918230012091379 0.0
0.7356431627643153 0.0034446946064888 0.0
1.2237547843476642 -0.0759991424899160 0.0
0.7073537288681975 0.0039740293008669 0.0
1.6554357665985833 0.0019309323207203 0.0
1.0152078185773061 0.0772606151679864 0.0
1.3367593928026511 -0.1219300508988973 0.0
1.1379877321865137 0.0013473486748298 0.0
1.4826474500876694 -0.1416672318948122 0.0
0.5735980842991569 -0.0439680764101888 0.0
1.1802510958361883 -0.0784255976643880 0.0
1.1958724633833726 -0.1110829129691064 0.0
1.2851107341226222 -0.1018247231974230 0.0
1.6362862860207379 -0.0139483060010744 0.0
1.6041156704192512 0.0500857589620048 0.0
0.9122437067639697 0.0703683736001926 0.0
1.2414875724835861 -0.0443273288665142 0.0
0.7517743414489121 0.1056674482280386 0.0
0.5943425925529512 -0.0028768559090314 0.0
0.4539233175103720 0.0237010592777120 0.0
1.4124694305091265 -0.0934559694868028 0.0
0.5852140045735579 0.1683865810179254 0.0
0.7016737068201682 -0.0059537784243379 0.0
1.5567119060813077 0.0241857943733680 0.0
1.2931588923028952 -0.0551416100921158 0.0
1.2091597975320008 -0.0398756455364373 0.0
1.5668085627592729 0.0674239232787199 0.0
1.3950408705027015 -0.0676061443846020 0.0
1.5713770108752123 0.0291850061891681 0.0
1.1820878493563742 0.0553863843468626 0.0
1.1164475772975879 -0.2484284624267728 0.0
1.2124571818665955 0.1689044524976097 0.0
1.1085297861312600 0.2334562058834512 0.0
1.0737850475738187 -0.0462647842970654 0.0
1.1845466201399177 0.0252530305551867 0.0
0.9319261915382595 0.0422977042723733 0.0
0.6005018850360788 0.1505651018690077 0.0
0.9917402853545288 -0.0116810866841760 0.0
1.3793533777059106 -0.0381701560553032 0.0
0.7661817537164086 0.0675772652469485 0.0
1.2074294082657751 0.0527325429918402 0.0
1.4243981224932332 -0.0634930018888281 0.0
0.8966616953990600 -0.0185860174216227 0.0
1.2624424562441661 0.0314002633913235 0.0
1.5241430860539069 0.0502803978278079 0.0
1.1943407342480312 -0.1764924782213252 0.0
1.3084351299856145 -0.1045395976830823 0.0
0.5426077173305315 0.1464655743092433 0.0
0.5417586102964638 0.1174164737764638 0.0
0.8400299665008386 -0.0134933599892574 0.0
1.4683311544604614 -0.0823532452840638 0.0
1.4206612630948217 -0.0788009288111781 0.0
0.5718606717175934 0.1684229563420399 0.0
0.6997532749412101 -0.0565935945689316 0.0
1.1212800068696571 0.0210661807965177 0.0
1.4556644498140938 -0.1079385806429831 0.0
0.9843914145056656 -0.0134303337238801 0.0
1.2904963763778241 0.0106334233355242 0.0
1.3727007140887364 -0.0829812743989084 0.0
0.9649249951990375 0.0082520434614968 0.0
0.8742868386787122 0.0707608516170085 0.0
1.3264737417411361 -0.0010028543036380 0.0
0.7699524410219483 -0.0262593133601614 0.0
1.5633418714877967 -0.0255883616032645 0.0
0.7666360352328258 0.0218951869665596 0.0
0.7733253478853332 -0.0295931321992769 0.0
1.2904693299208230 -0.0770274135104802 0.0
1.3722700368535257 -0.0121416936057451 0.0
0.9908615962826551 0.0109996805781313 0.0
0.6151826010806758 0.1893010570308955 0.0
0.9120998240653172 -0.0047447091769915 0.0
1.1662950961040297 -0.0491667907045089 0.0
0.8170824638545330 0.0947984071173324 0.0
1.1782985464491416 0.1374474678035141 0.0
1.1013998434883181 -0.0215013853100241 0.0
0.6808879602834662 0.0183650016958358 0.0
1.5208043125528241 -0.0207853728193616 0.0
0.9051261878279274 -0.0120536935976035 0.0
1.5448331141501004 -0.0252030470716226 0.0
0.4434505109419363 -0.0348432525668111 0.0
1.4428224781904699 -0.1671326619645360 0.0
1.5957083378723207 -0.0124556620537045 0.0
0.5683912853977291 0.1164444809638695 0.0
0.7796427012601320 -0.0246823690620916 0.0
1.5830525450858481 0.0684424770093325 0.0
0.9358112988079126 0.0921399154388579 0.0
1.5611447142438752 0.0567052679499895 0.0
1.0100740372670975 -0.0170332426845048 0.0
0.8009456689083171 -0.0593279618135533 0.0
0.6801808755083141 -0.0328480487995879 0.0
1.0199156188082872 -0.0257084333591109 0.0
1.0031218471565133 0.0297399269847305 0.0
1.4554331262030664 0.0137132324530321 0.0
0.5598085245921292 0.0372238552427413 0.0
0.8815081278448428 -0.0614670507352736 0.0
0.8519167205316687 0.0508114116487315 0.0
1.4236827978234528 0.0793450973608122 0.0
0.8020126191370716 -0.1992380459384511 0.0
0.8297071847573406 -0.0261045445859391 0.0
0.5242105137688700 -0.0485966972282766 0.0
1.0625755327135757 0.0203611819474798 0.0
0.7178977780710761 0.1944560070287760 0.0
0.9028013912697973 0.0436600632604116 0.0
1.2659870170040792 -0.1214692198572196 0.0
0.7638767251041578 -0.0185307683951198 0.0
0.9013557813777682 -0.0017255732867069 0.0
1.0136097398001767 -0.0135818626920649 0.0
0.7921730781881101 -0.0307930573111493 0.0
0.7688495004010363 -0.0447167963948951 0.0
1.4902477734013262 0.0257054054071067 0.0
0.8008146611948443 -0.0317990282735234 0.0
1.0386014842561815 -0.0772322877940434 0.0
0.8395351348991333 0.0547670163513680 0.0
1.2981340908639989 -0.0392155705089201 0.0
0.6349994799427382 -0.0184206155410029 0.0
0.4081185448598452 0.0062196829422966 0.0
1.1816145935056050 -0.0898654571213780 0.0
0.8365313171220130 0.1024987588430811 0.0
0.7950728973447095 -0.0164241108954839 0.0
0.9599736722855617 0.0562745775362267 0.0
1.3267149324694298 -0.0290940811592948 0.0
0.6552327526629013 -0.0209084735080937 0.0
1.2150823096430696 0.1880749861231145 0.0
1.5005815070029107 0.0057894221123890 0.0
0.7108450371418487 -0.0126732693279514 0.0
1.1430585233477588 0.0043841534983783 0.0
1.2682787998490639 -0.0616698426668270 0.0
1.1007983734924152 -0.0497476302100253 0.0
1.4161647193129103 -0.1212627036488574 0.0
0.4781270759793720 0.2093818757553637 0.0
1.7297221057064869 0.0212649215492323 0.0
1.3373222575248862 0.0306429724573772 0.0
0.5596693400289799 0.0508622873731211 0.0
1.4464348281066723 -0.1444034001458376 0.0
1.5091264803221194 -0.0899940121666532 0.0
0.6379095372365583 -0.0073113596195588 0.0
1.0245709157382814 -0.0128670811593577 0.0
0.6729496569793267 -0.0388627192012556 0.0
0.9513541403659495 -0.0773766424978853 0.0
0.7842787011315037 -0.0531495279075742 0.0
0.4091079268090763 0.2124533835263919 0.0
1.1283852649607762 0.2385347149099709 0.0
1.5951534762527690 0.0098292782261616 0.0
0.5839375555001053 0.2185923099496948 0.0
1.5770574035305764 -0.0622907189244581 0.0
1.7459450087988986 0.0982801834519711 0.0
0.5488655289394677 0.2105956837932324 0.0
1.4831342747824323 0.0456650012417476 0.0
1.4129851570287193 -0.1386661949309449 0.0
0.9252004965201408 0.2496838480221427 0.0
1.2899367015774001 -0.0202287641725906 0.0
1.3191279106471219 0.0209743203347826 0.0
0.7802570004044992 0.0898665364814560 0.0
1.3390997442367378 -0.1144671950193059 0.0
0.6971316077152127 -0.0565872370654638 0.0
0.5921372644168413 0.1949447058455269 0.0
0.4137343968502844 0.0216793356472756 0.0
1.2108392353836470 -0.0236707319941606 0.0
0.8845702866215982 -0.2755623079634324 0.0
1.4185695565390393 0.1012622955011605 0.0
1.2963366518737156 -0.1089126734259684 0.0
0.5607122078254221 -0.0117809354790786 0.0
0.5819142652941436 0.0485935935844566 0.0
0.6995214374852706 0.0180105398861773 0.0
1.1506953225072705 0.0052969201774906 0.0
1.2032006371157495 0.2938886932235091 0.0
0.5647558476837368 -0.0333332020081892 0.0
1.1363953575402121 -0.0582586790548599 0.0
0.5929797906371896 0.0406357315726626 0.0
1.5697226490519243 0.0402930285275427 0.0
0.4607568145930169 0.2483613477987164 0.0
0.7426262605378153 -0.1218505626540572 0.0
1.5410102596195649 -0.0447851110516664 0.0
1.2541004549795223 0.0378375716786944 0.0
1.5215206376523707 -0.1378207991938653 0.0
0.6837523339462470 0.0059686493374741 0.0
0.8716961414050589 -0.0341641143564521 0.0
1.4575228572601111 -0.1040479436141192 0.0
1.3924190784335571 -0.0801374114372543 0.0
1.0243010167356674 0.0639405246150435 0.0
1.4492421121632588 0.0373564346480977 0.0
1.3309424878966551 -0.0711328286715838 0.0
1.2700334359404790 0.1466734218480818 0.0
0.8560586079762761 -0.0076924425937928 0.0
0.7440245232631043 -0.0212840535452618 0.0
0.6761250291365672 -0.0462658696332805 0.0
1.3182164413623472 -0.0696518863038766 0.0
1.3218008305755806 -0.0654126035139931 0.0
1.1368571200549855 0.1171419397314757 0.0
0.3433024549576978 0.0305910980459099 0.0
1.4378827047373142 -0.0930921976527627 0.0
0.3071366126414107 0.1117010997448604 0.0
0.6910651837795467 0.1212540926170730 0.0
1.0723502952168520 0.0359157550657046 0.0
0.5384635541492109 -0.1145886648489156 0.0
1.1464907101508439 -0.3159076036335803 0.0
1.3814129478820931 -0.0729002579954439 0.0
1.6094534347876550 -0.0186652349143872 0.0
0.7313786646907122 0.1117526649184713 0.0
1.5214570493228867 -0.0618520302999207 0.0
0.9309833729959676 -0.0331256073871127 0.0
1.3911226367153999 -0.0614384762466260 0.0
0.9329828551452272 -0.0255923965869191 0.0
0.4958581850365888 0.2077773575205538 0.0
0.9085078024163317 -0.0552192951548548 0.0
1.0265625254631259 -0.0642638890729997 0.0
1.5678662631870750 -0.0462035594920798 0.0