# vtk DataFile Version 3.0
LucasCarvalhoTCC Results
ASCII

DATASET POLYDATA
FIELD FieldData 1
TIME 1 1 double
3.7

POINTS 600 float
0.0 2.0 0.0
0.25 1.989125 0.0
0.5 1.958 0.0
0.75 1.908875 0.0
1.0 1.844 0.0
1.25 1.765625 0.0
1.5 1.676 0.0
1.75 1.577375 0.0
2.0 1.472 0.0
2.25 1.362125 0.0
2.5 1.25 0.0
2.75 1.137875 0.0
3.0 1.028 0.0
3.25 0.922625 0.0
3.5 0.8240000000000001 0.0
3.75 0.734375 0.0
4.0 0.6560000000000001 0.0
4.25 0.5911249999999999 0.0
4.5 0.542 0.0
4.75 0.510875 0.0
5.0 0.5 0.0
5.25 0.5036250000000004 0.0
5.5 0.5140000000000002 0.0
5.75 0.5303750000000003 0.0
6.0 0.5519999999999996 0.0
6.25 0.578125 0.0
6.5 0.6080000000000005 0.0
6.75 0.6408749999999999 0.0
7.0 0.6760000000000002 0.0
7.25 0.7126249999999992 0.0
7.5 0.75 0.0
7.75 0.7873750000000004 0.0
8.0 0.8239999999999994 0.0
8.25 0.8591250000000001 0.0
8.5 0.8919999999999999 0.0
8.75 0.921875 0.0
9.0 0.9479999999999991 0.0
9.25 0.9696250000000011 0.0
9.5 0.9859999999999984 0.0
9.75 0.9963750000000013 0.0
10.0 1.0 0.0
0.0 0.0 0.0
10.0 0.0 0.0
0.124999999999674 1.994562500000014 0.0
0.3749999999999947 1.973562500000001 0.0
0.6249999999999918 1.933437500000002 0.0
0.874999999999979 1.876437500000006 0.0
1.124999999999963 1.804812500000012 0.0
1.374999999999944 1.72081250000002 0.0
1.624999999999985 1.626687500000006 0.0
1.874999999999953 1.52468750000002 0.0
2.124999999999936 1.417062500000028 0.0
2.374999999999952 1.306062500000022 0.0
2.624999999999919 1.193937500000036 0.0
2.87499999999992 1.082937500000035 0.0
3.124999999999946 0.9753125000000229 0.0
3.374999999999948 0.8733125000000204 0.0
3.624999999999972 0.77918750000001 0.0
3.874999999999963 0.6951875000000118 0.0
4.124999999999968 0.6235625000000082 0.0
4.394409538298571 0.5627485257243309 0.0
4.583333333333322 0.5316250000000015 0.0
4.666666666666668 0.5212499999999999 0.0
4.833333333333334 0.50725 0.0
4.916666666666667 0.503625 0.0
5.083333333333334 0.5012083333333335 0.0
5.166666666666666 0.502416666666667 0.0
5.333333333333334 0.5070833333333337 0.0
5.416666666666667 0.510541666666667 0.0
5.583333333333334 0.5194583333333336 0.0
5.666666666666666 0.5249166666666669 0.0
5.833333333333338 0.5375833333333339 0.0
5.916666666666661 0.544791666666666 0.0
6.105781577147724 0.5630541748119369 0.0
6.375 0.5930625000000003 0.0
6.624999999999988 0.6244374999999988 0.0
6.874999999999994 0.6584374999999991 0.0
7.125 0.6943124999999997 0.0
7.375 0.7313124999999996 0.0
7.624999999999994 0.7686874999999992 0.0
7.875 0.8056874999999999 0.0
8.125 0.8415624999999998 0.0
8.374999999999991 0.8755624999999989 0.0
8.624999999999995 0.9069374999999993 0.0
8.874999999999995 0.9349374999999991 0.0
9.125 0.9588125000000001 0.0
9.375 0.9778124999999998 0.0
9.625 0.9911874999999999 0.0
9.875 0.9981875000000007 0.0
0.0 1.799999999999167 0.0
0.0 1.6 0.0
0.0 1.400000000001387 0.0
0.0 1.200000000002774 0.0
0.0 1.000000000004117 0.0
0.0 0.8000000000033287 0.0
0.0 0.6000000000024965 0.0
0.0 0.4000000000016644 0.0
0.0 0.200000000000832 0.0
0.199999999999856 0.0 0.0
0.3999999999996677 0.0 0.0
0.5999999999994683 0.0 0.0
0.7999999999993286 0.0 0.0
0.9999999999991888 0.0 0.0
1.199999999999033 0.0 0.0
1.399999999998576 0.0 0.0
1.599999999997992 0.0 0.0
1.799999999997408 0.0 0.0
1.999999999996825 0.0 0.0
2.199999999996241 0.0 0.0
2.399999999995657 0.0 0.0
2.599999999995073 0.0 0.0
2.79999999999449 0.0 0.0
2.999999999993906 0.0 0.0
3.199999999993322 0.0 0.0
3.399999999992738 0.0 0.0
3.599999999992154 0.0 0.0
3.799999999991571 0.0 0.0
3.999999999991022 0.0 0.0
4.199999999991187 0.0 0.0
4.399999999991491 0.0 0.0
4.599999999991795 0.0 0.0
4.799999999992099 0.0 0.0
4.999999999992403 0.0 0.0
5.199999999992706 0.0 0.0
5.39999999999301 0.0 0.0
5.599999999993313 0.0 0.0
5.799999999993618 0.0 0.0
5.999999999993922 0.0 0.0
6.199999999994227 0.0 0.0
6.39999999999453 0.0 0.0
6.599999999994833 0.0 0.0
6.799999999995138 0.0 0.0
6.999999999995442 0.0 0.0
7.199999999995747 0.0 0.0
7.39999999999605 0.0 0.0
7.599999999996353 0.0 0.0
7.799999999996658 0.0 0.0
7.999999999996962 0.0 0.0
8.199999999997265 0.0 0.0
8.399999999997569 0.0 0.0
8.599999999997873 0.0 0.0
8.799999999998176 0.0 0.0
8.99999999999848 0.0 0.0
9.199999999998786 0.0 0.0
9.399999999999089 0.0 0.0
9.599999999999392 0.0 0.0
9.799999999999697 0.0 0.0
10.0 0.1999999999995579 0.0
10.0 0.3999999999989749 0.0
10.0 0.5999999999989468 0.0
10.0 0.7999999999994734 0.0
0.913963423524136 0.9126937851647636 0.0
1.629657910441747 0.8286436141773268 0.0
2.300136613917738 0.6369890708869279 0.0
0.5989085226155619 1.38125543468559 0.0
1.274155622640533 1.242773398230304 0.0
2.860215383945273 0.5217401976756945 0.0
9.469653920408135 0.4910067017840992 0.0
8.984679546317787 0.4696119782494839 0.0
8.499397693277212 0.4463630640980716 0.0
3.270918412356206 0.4522692359356972 0.0
1.223039611612243 0.5146439900227544 0.0
2.024812732135938 1.00818256045515 0.0
0.5365376864627701 0.5434316309416508 0.0
8.114834335444021 0.4602948767329583 0.0
7.742261962994204 0.4117304941858466 0.0
0.9443382341364558 1.456061359265878 0.0
1.665275621558886 1.201744468407863 0.0
1.89566112584099 0.4397284596316843 0.0
3.691409759982064 0.3560936332572802 0.0
7.368457390036411 0.3792926046732459 0.0
0.5071184951703254 0.9340893429149442 0.0
0.3822273842356539 1.647625881691675 0.0
5.916285335387544 0.2564903116750689 0.0
5.628860531758535 0.2582323053999509 0.0
5.380471017960128 0.2502349014663197 0.0
5.139244585769944 0.2549145445969738 0.0
2.686085237972266 0.8031095648160084 0.0
4.507599040026292 0.263176944655695 0.0
6.983755234374982 0.3380000000001097 0.0
9.720925955181613 0.6635813325201156 0.0
1.288006195687152 0.8759679848503046 0.0
9.20556379558699 0.6923669083350594 0.0
2.319913492084225 0.9512500928262699 0.0
8.73203612228155 0.6151508464420534 0.0
4.868679481352366 0.2526598053940744 0.0
4.10358044398202 0.3012437332986487 0.0
6.602422946953217 0.3126221952225479 0.0
2.534693527909069 0.3583319619586092 0.0
6.193332317503376 0.2894654215336858 0.0
0.8804088217382579 0.3735513844182569 0.0
0.7663303172393539 1.679065267574722 0.0
3.081211528283084 0.6968015573146217 0.0
1.241762689885858 1.521465072418641 0.0
1.573472750763779 0.3374689934575129 0.0
1.475107933015155 1.403918544935278 0.0
0.8212739503602162 1.195790902469637 0.0
4.681049549092561 0.3558177014380842 0.0
9.439519900118443 0.7366884444350511 0.0
2.201393787062887 0.3261463175998884 0.0
2.015369189818184 0.7109460688851087 0.0
8.32727069655695 0.6360373328685593 0.0
8.961488632119996 0.7119124617705204 0.0
9.22773266034565 0.3109430611770705 0.0
0.3000513553073295 1.178778127105867 0.0
1.91985473842554 1.233084801189704 0.0
8.749827252515535 0.3049638092131281 0.0
3.50551132590258 0.5576614504134195 0.0
3.040500962406976 0.290446660105673 0.0
9.72097519930939 0.3037986529514364 0.0
0.3073166349239687 0.3249300260882615 0.0
0.2948185331392187 0.7229775107826154 0.0
1.46029425821417 1.06552904833304 0.0
0.8085718129253527 0.673531272847494 0.0
7.913326191751847 0.5738936378911789 0.0
8.295349499871781 0.2556682497524391 0.0
4.31359646688283 0.3665214152100782 0.0
7.542842082022704 0.5249918217576657 0.0
1.058357552227335 1.116692590939024 0.0
2.214297272750292 1.159898327391242 0.0
2.901187336648686 0.8282146771898153 0.0
3.933498145061447 0.4325241689837319 0.0
7.956006969037984 0.2667411694088205 0.0
7.172393179434975 0.4835114022190097 0.0
1.440243631802057 0.6689433452646625 0.0
3.458541882144431 0.2581755850286561 0.0
5.791617360065465 0.3978542524532168 0.0
5.981529865241493 0.3900667299390458 0.0
1.083462543944253 0.7203994120564634 0.0
1.78518471978951 1.008552691762234 0.0
2.77360122246243 0.2689852172070111 0.0
2.565134389978369 0.9928826788184764 0.0
2.543046005790158 0.6034091352176242 0.0
3.293038780485421 0.6769811703257343 0.0
6.790787388653942 0.4353933509634578 0.0
1.140204059461831 0.2538227257007896 0.0
0.6242104065654487 0.2738473600765566 0.0
6.393430278703709 0.3766405270445946 0.0
8.533059390324546 0.6950580701614406 0.0
0.9961263693263854 1.612128843772703 0.0
1.697598586607002 0.5781950992180334 0.0
8.087930458724863 0.6517815437732153 0.0
0.2748906317360928 1.770749713716887 0.0
0.5785110002099415 1.757022387413085 0.0
5.550004842562332 0.3852675728674634 0.0
4.948161884155141 0.3480305424737933 0.0
1.741244734175577 1.381979611033466 0.0
5.312408927381063 0.3621256994047111 0.0
0.2492139438157334 1.453132031680879 0.0
7.597720022451821 0.2370268512906596 0.0
9.471021754366422 0.2472916581956264 0.0
7.714083843672875 0.600212897672991 0.0
4.520815862079482 0.3946753115680038 0.0
2.47356661122767 0.8007389356831706 0.0
7.325494311403363 0.528948935030723 0.0
7.147005275585743 0.2709670165999667 0.0
3.758046446289313 0.5474783841545341 0.0
3.893717059615281 0.1664960777568404 0.0
2.152835534199412 0.8614028741175742 0.0
8.995993312441625 0.1933410497113667 0.0
1.077676137392001 1.368204555688504 0.0
0.2429906229817933 0.9816066505657851 0.0
0.6261765586985547 1.180540007244081 0.0
9.81151801018651 0.816223424030724 0.0
0.6725442903064565 0.8425384371773644 0.0
1.74584086891446 0.2617492458514414 0.0
0.7667820686164357 1.440842670056678 0.0
8.539133693395232 0.1910926418035274 0.0
5.129145653242096 0.3632579123815574 0.0
6.816538849831732 0.2013284992826486 0.0
2.108503954619862 0.5359795950847274 0.0
6.933669557130528 0.4980836483776163 0.0
3.071406705674529 0.4919421055852253 0.0
2.001240035874449 0.2292738462614773 0.0
4.782473531509697 0.4061213127162872 0.0
0.5734126310178208 1.536352720889636 0.0
9.796714529589472 0.4898048068674991 0.0
5.678359041645315 0.373719883316694 0.0
5.427661572827738 0.3646059266294788 0.0
2.075214597532947 1.226969224366912 0.0
3.251521478555126 0.2637671977660283 0.0
2.722180837291864 0.9710783334409533 0.0
9.333262390342384 0.8479609887828539 0.0
1.367251332770493 0.2041553944563636 0.0
1.870721433742522 0.7905989208842599 0.0
1.387906762913351 1.555741687747287 0.0
9.559918612869 0.8444052974080497 0.0
9.286795039366257 0.4698254290795815 0.0
1.507117480770146 1.225129516597721 0.0
[...]
POINT_DATA 600

VECTORS Velocity float
0.0000000000000000 0.0000000000000000 0.0
0.0000000000000000 0.0000000000000000 0.0
0.0000000000000000 0.0000000000000000 0.0
0.0000000000000000 0.0000000000000000 0.0
0.0000000000000000 0.0000000000000000 0.0
0.0000000000000000 0.0000000000000000 0.0
0.0000000000000000 0.0000000000000000 0.0
0.0000000000000000 0.0000000000000000 0.0
0.0000000000000000 0.0000000000000000 0.0
0.0000000000000000 0.0000000000000000 0.0
0.0000000000000000 0.0000000000000000 0.0
0.0000000000000000 0.0000000000000000 0.0
0.0000000000000000 0.0000000000000000 0.0
0.0000000000000000 0.0000000000000000 0.0
0.0000000000000000 0.0000000000000000 0.0
0.0000000000000000 0.0000000000000000 0.0
0.0000000000000000 0.0000000000000000 0.0
0.0000000000000000 0.0000000000000000 0.0
0.0000000000000000 0.0000000000000000 0.0
0.0000000000000000 0.0000000000000000 0.0
0.0000000000000000 0.0000000000000000 0.0
0.0000000000000000 0.0000000000000000 0.0
0.0000000000000000 0.0000000000000000 0.0
0.0000000000000000 0.0000000000000000 0.0
0.0000000000000000 0.0000000000000000 0.0
0.0000000000000000 0.0000000000000000 0.0
0.0000000000000000 0.0000000000000000 0.0
0.0000000000000000 0.0000000000000000 0.0
0.0000000000000000 0.0000000000000000 0.0
0.0000000000000000 0.0000000000000000 0.0
0.0000000000000000 0.0000000000000000 0.0
0.0000000000000000 0.0000000000000000 0.0
0.0000000000000000 0.0000000000000000 0.0
0.0000000000000000 0.0000000000000000 0.0
0.0000000000000000 0.0000000000000000 0.0
0.0000000000000000 0.0000000000000000 0.0
0.0000000000000000 0.0000000000000000 0.0
0.0000000000000000 0.0000000000000000 0.0
0.0000000000000000 0.0000000000000000 0.0
0.0000000000000000 0.0000000000000000 0.0
0.0000000000000000 0.0000000000000000 0.0
0.0000000000000000 0.0000000000000000 0.0
0.8242137781678592 -0.1316381749783075 0.0
0.0000000000000000 0.0000000000000000 0.0
0.0000000000000000 0.0000000000000000 0.0
0.0000000000000000 0.0000000000000000 0.0
0.0000000000000000 0.0000000000000000 0.0
0.0000000000000000 0.0000000000000000 0.0
0.0000000000000000 0.0000000000000000 0.0
0.0000000000000000 0.0000000000000000 0.0
0.0000000000000000 0.0000000000000000 0.0
0.0000000000000000 0.0000000000000000 0.0
0.0000000000000000 0.0000000000000000 0.0
0.0000000000000000 0.0000000000000000 0.0
0.0000000000000000 0.0000000000000000 0.0
0.0000000000000000 0.0000000000000000 0.0
0.0000000000000000 0.0000000000000000 0.0
0.0000000000000000 0.0000000000000000 0.0
0.0000000000000000 0.0000000000000000 0.0
0.0000000000000000 0.0000000000000000 0.0
0.0000000000000000 0.0000000000000000 0.0
0.0000000000000000 0.0000000000000000 0.0
0.0000000000000000 0.0000000000000000 0.0
0.0000000000000000 0.0000000000000000 0.0
0.0000000000000000 0.0000000000000000 0.0
0.0000000000000000 0.0000000000000000 0.0
0.0000000000000000 0.0000000000000000 0.0
0.0000000000000000 0.0000000000000000 0.0
0.0000000000000000 0.0000000000000000 0.0
0.0000000000000000 0.0000000000000000 0.0
0.0000000000000000 0.0000000000000000 0.0
0.0000000000000000 0.0000000000000000 0.0
0.0000000000000000 0.0000000000000000 0.0
0.0000000000000000 0.0000000000000000 0.0
0.0000000000000000 0.0000000000000000 0.0
0.0000000000000000 0.0000000000000000 0.0
0.0000000000000000 0.0000000000000000 0.0
0.0000000000000000 0.0000000000000000 0.0
0.0000000000000000 0.0000000000000000 0.0
0.0000000000000000 0.0000000000000000 0.0
0.0000000000000000 0.0000000000000000 0.0
0.0000000000000000 0.0000000000000000 0.0
0.0000000000000000 0.0000000000000000 0.0
0.0000000000000000 0.0000000000000000 0.0
0.0000000000000000 0.0000000000000000 0.0
0.0000000000000000 0.0000000000000000 0.0
0.0000000000000000 0.0000000000000000 0.0
0.0000000000000000 0.0000000000000000 0.0
0.0000000000000000 0.0000000000000000 0.0
1.0000000000000000 0.0000000000000000 0.0
1.0000000000000000 0.0000000000000000 0.0
1.0000000000000000 0.0000000000000000 0.0
1.0000000000000000 0.0000000000000000 0.0
1.0000000000000000 0.0000000000000000 0.0
1.0000000000000000 0.0000000000000000 0.0
1.0000000000000000 0.0000000000000000 0.0
1.0000000000000000 0.0000000000000000 0.0
1.0000000000000000 0.0000000000000000 0.0
0.0000000000000000 0.0000000000000000 0.0
0.0000000000000000 0.0000000000000000 0.0
0.0000000000000000 0.0000000000000000 0.0
0.0000000000000000 0.0000000000000000 0.0
0.0000000000000000 0.0000000000000000 0.0
0.0000000000000000 0.0000000000000000 0.0
0.0000000000000000 0.0000000000000000 0.0
0.0000000000000000 0.0000000000000000 0.0
0.0000000000000000 0.0000000000000000 0.0
0.0000000000000000 0.0000000000000000 0.0
0.0000000000000000 0.0000000000000000 0.0
0.0000000000000000 0.0000000000000000 0.0
0.0000000000000000 0.0000000000000000 0.0
0.0000000000000000 0.0000000000000000 0.0
0.0000000000000000 0.0000000000000000 0.0
0.0000000000000000 0.0000000000000000 0.0
0.0000000000000000 0.0000000000000000 0.0
0.0000000000000000 0.0000000000000000 0.0
0.0000000000000000 0.0000000000000000 0.0
0.0000000000000000 0.0000000000000000 0.0
0.0000000000000000 0.0000000000000000 0.0
0.0000000000000000 0.0000000000000000 0.0
0.0000000000000000 0.0000000000000000 0.0
0.0000000000000000 0.0000000000000000 0.0
0.0000000000000000 0.0000000000000000 0.0
0.0000000000000000 0.0000000000000000 0.0
0.0000000000000000 0.0000000000000000 0.0
0.0000000000000000 0.0000000000000000 0.0
0.0000000000000000 0.0000000000000000 0.0
0.0000000000000000 0.0000000000000000 0.0
0.0000000000000000 0.0000000000000000 0.0
0.0000000000000000 0.0000000000000000 0.0
0.0000000000000000 0.0000000000000000 0.0
0.0000000000000000 0.0000000000000000 0.0
0.0000000000000000 0.0000000000000000 0.0
0.0000000000000000 0.0000000000000000 0.0
0.0000000000000000 0.0000000000000000 0.0
0.0000000000000000 0.0000000000000000 0.0
0.0000000000000000 0.0000000000000000 0.0
0.0000000000000000 0.0000000000000000 0.0
0.0000000000000000 0.0000000000000000 0.0
0.0000000000000000 0.0000000000000000 0.0
0.0000000000000000 0.0000000000000000 0.0
0.0000000000000000 0.0000000000000000 0.0
0.0000000000000000 0.0000000000000000 0.0
0.0000000000000000 0.0000000000000000 0.0
0.0000000000000000 0.0000000000000000 0.0
0.0000000000000000 0.0000000000000000 0.0
0.0000000000000000 0.0000000000000000 0.0
1.0711266056393922 -0.4641529836459874 0.0
0.9659918901942470 -0.1983821082971612 0.0
0.9840754144586387 -0.0312885427735488 0.0
1.0703926389189453 0.3853743940946974 0.0
1.4125203789998226 0.0069243990159670 0.0
1.4981588333538924 -0.1014603435579280 0.0
1.4751963459425839 -0.1921497658215009 0.0
1.2347645520262813 -0.1285351275309451 0.0
1.3373999253352491 -0.0720383195808117 0.0
1.5336051905400279 -0.1172749849221133 0.0
1.5904469217770012 -0.0304680859223660 0.0
1.5334323557500424 0.0206831291353552 0.0
1.5837686590451845 0.0986105478070818 0.0
1.5108130381915255 -0.1191355073472512 0.0
1.1695844663128143 0.0047682744695962 0.0
1.3658771494557695 -0.0954081223904405 0.0
1.2329829953133691 0.2546760359234766 0.0
1.5844630799459287 0.0725542859495588 0.0
1.5632145684124963 0.0078156700204171 0.0
1.1312704085197955 -0.0406233818799992 0.0
1.2485692351115276 -0.0135926392640877 0.0
1.1358968124573428 -0.0757778963484857 0.0
1.5270602436435963 -0.0568233771052660 0.0
1.5804219270225326 0.0552341867392256 0.0
1.2346511527704351 0.0999341577237052 0.0
1.1209971601203106 -0.2592192730417083 0.0
1.4955490380923830 0.0144125756675932 0.0
1.4954903312087731 -0.0177049399052718 0.0
1.5251520861188272 0.0356299734064179 0.0
1.5471114864502609 0.0132598124124924 0.0
1.3232647189649500 -0.1129053095447709 0.0
1.4872495822045502 0.0099310029153314 0.0
1.6540852732215978 0.0258549325166798 0.0
1.3615079286282157 0.1307733448040026 0.0
1.4938527645782893 -0.0476407433836979 0.0
1.3841984134789902 -0.0479947696150173 0.0
1.3402338851492313 -0.1377313735274283 0.0
1.5117086679261862 0.0931661178592645 0.0
1.5117737023929405 0.0023990433485530 0.0
1.6249148241369467 -0.1066307819108882 0.0
1.6830010463221368 -0.0380694906762808 0.0
1.1998743864361445 -0.1054848990896470 0.0
1.5893047458051877 -0.0203090847311585 0.0
0.9509286053629576 0.0693233956831653 0.0
0.8287783053495763 0.0392568698211674 0.0
1.3816835151233904 -0.0440945629664200 0.0
0.8469972953304464 0.0466347808436850 0.0
0.8332366099979339 -0.0545858744154628 0.0
0.9634268378795047 0.0615095705724500 0.0
1.3544237537247670 -0.0589954080482067 0.0
1.8005023812557073 -0.1359293312328004 0.0
1.2809250515570929 0.0006253498991532 0.0
0.9708372768900509 -0.0727142200604646 0.0
1.4757211756351392 -0.1234464273570858 0.0
1.3649531088787981 0.0418464828855020 0.0
1.3293269226890345 0.0010140560713112 0.0
1.2150110223464508 -0.0203067670453739 0.0
1.0919102170050052 -0.0898131218508577 0.0
1.0443092603804693 0.0340653071769106 0.0
1.2475654877137690 0.0249600889725020 0.0
1.4512132188371432 -0.0618626616278545 0.0
1.2281489060563298 -0.0304659014332614 0.0
1.2019935888927051 -0.2099689014376741 0.0
1.1209548299184198 0.3493253134467504 0.0
1.1044327083921577 0.2132129634627326 0.0
1.4747808480329991 -0.0814007616402427 0.0
1.3141130083848698 0.1172176363765071 0.0
1.3993797450083312 0.0531058685152562 0.0
1.2319938270255770 0.0225692492817619 0.0
1.7382831252612756 0.0681674646025379 0.0
1.4846835664874878 -0.0106508607845886 0.0
1.4284656752921407 -0.0596270640535161 0.0
0.8998704932002796 0.0278137298622551 0.0
1.0938489414488788 -0.0106025216604363 0.0
1.6053636163283775 -0.1344282209276273 0.0
1.3119213998954693 0.0488919548223853 0.0
1.4483453998101732 0.0722457597197769 0.0
1.4091300827516058 -0.0636483603465912 0.0
1.2407180024015927 -0.0434170366011253 0.0
1.5394579697203050 -0.0425794635568230 0.0
1.6095277852098899 0.0403303881172312 0.0
1.4115484086455796 0.0255573081737782 0.0
1.4421587616532359 -0.0917655924082075 0.0
1.0755793569811656 -0.0960479022548474 0.0
0.9666885209526440 0.0148833267244635 0.0
1.5240773395466025 -0.1854629297953516 0.0
1.2376457157180702 -0.0962451201250238 0.0
1.5845259912016731 0.0135190962021141 0.0
0.5571116851699019 0.0304788995374684 0.0
0.8445094276810509 0.1078076181803520 0.0
1.6626010728215910 0.0133741738161021 0.0
1.2484570558209158 -0.0062004930091683 0.0
0.8311689802053561 0.0413384683704992 0.0
1.3271053987061450 -0.1121555082492763 0.0
1.1907462227774177 0.0056061871586793 0.0
1.1005066823012468 -0.2852931017141551 0.0
0.7921310360290489 0.0371367557201180 0.0
1.5948695629645377 0.0114895616938100 0.0
1.6646622279341665 -0.0091776949593715 0.0
0.8104928828474585 0.1157743226830485 0.0
1.6080547176458238 0.0561307223081565 0.0
1.0883624181605853 -0.2381041441911838 0.0
1.2206571286716079 0.0321791408212537 0.0
1.0951802637293353 -0.0425081249179015 0.0
1.2306591097203532 0.0139197064902964 0.0
1.6700405051690599 -0.0216763961874261 0.0
1.4561974575781469 -0.2146876915412009 0.0
1.4486411972583348 0.0459623029635494 0.0
1.4479869310956512 0.0891587136460623 0.0
1.3494708914733462 -0.0520671356144904 0.0
0.7452099562899649 -0.0909375779430230 0.0
1.4677275606074531 -0.1580181848147809 0.0
0.6532706485451336 -0.0045475113534614 0.0
1.2239181092064533 -0.0509531827053173 0.0
1.0598388278588351 0.0137176594425108 0.0
1.2903028619852186 -0.0392796705118807 0.0
1.1683709147618553 0.2323329216706881 0.0
1.3218661969027306 0.1070458041735130 0.0
0.6838626473144735 -0.0057633262582607 0.0
1.2020244252657764 -0.0815823704080772 0.0
0.7055000567788232 0.0046994850780584 0.0
1.6563983048119926 0.0019184078735423 0.0
1.0150808772364655 0.0772662251771237 0.0
1.3494075795471727 -0.1429060502679292 0.0
1.1382059256157646 0.0015193709389185 0.0
1.4878321694276111 -0.1417287261489412 0.0
0.5429297709394082 -0.0463568294198692 0.0
1.1807247820550240 -0.0784222179537364 0.0
1.1654271991275789 -0.1318788255371513 0.0
1.2868712516902103 -0.1045322185508825 0.0
1.6374314108561538 -0.0138560161281654 0.0
1.6048795139702077 0.0503833700272318 0.0
0.8750060339588139 0.0875831441327141 0.0
1.2406838870873260 -0.0444388271337405 0.0
0.7415154420133946 0.1146198595870827 0.0
0.5925481479749409 -0.0026479350771734 0.0
0.4105131715553608 0.0214372652055820 0.0
1.4813505449750959 -0.1136968938563497 0.0
0.5475114471238488 0.1816121050568083 0.0
0.7005251634872577 -0.0056612664265110 0.0
1.5623749273774619 0.0253190645254266 0.0
1.2841405060387998 -0.0496727955069976 0.0
1.2102100853711109 -0.0406162673811060 0.0
1.5678148015613840 0.0696386100010131 0.0
1.4635694905020264 -0.0672800678961725 0.0
1.5716803473235579 0.0288448613616947 0.0
1.1841628302378175 0.0547561021761186 0.0
1.1093960216509815 -0.2632470959368995 0.0
1.2324065931071428 0.1903663949318030 0.0
1.1068898322814873 0.2438639548754284 0.0
1.0737780381435349 -0.0461728569265436 0.0
1.1845079548237467 0.0250309396805630 0.0
0.9319465263055925 0.0425153798936145 0.0
0.5775106841056581 0.1638362368400326 0.0
0.9917847719183877 -0.0116470076071948 0.0
1.4656217814636043 -0.0423453850560545 0.0
0.7658282733444418 0.0675618506272310 0.0
1.1784083681746436 0.0677375663266655 0.0
1.5088104153567787 -0.0767286929097645 0.0
0.8751579293936695 -0.0250184692090137 0.0
1.2624366555824551 0.0300787056187371 0.0
1.5258319182419455 0.0516632070531615 0.0
1.1831433822885304 -0.2109430464862535 0.0
1.3148123391568476 -0.1150329010094400 0.0
0.5047731312368485 0.1598717156203518 0.0
0.5028925734270866 0.1278524406174321 0.0
0.8396672672754526 -0.0137334130287342 0.0
1.4759756028528566 -0.0803853025225930 0.0
1.4942842680182669 -0.0943278647382064 0.0
0.5383975637855850 0.1836035465510578 0.0
0.6799624397144614 -0.0635169937818473 0.0
1.1214141564945053 0.0212975864774110 0.0
1.4711363392444210 -0.1205809120861693 0.0
0.9861202543668602 -0.0135434394881755 0.0
1.3558608252682873 0.0093829265731411 0.0
1.4158559625848419 -0.1076356173495944 0.0
0.9659693456392311 0.0081907615061389 0.0
0.8754656738760724 0.0703820597349187 0.0
1.3265451654759128 -0.0012474113704141 0.0
0.7683871936829048 -0.0259733723861913 0.0
1.5634366257824992 -0.0255201639265550 0.0
0.7657865046861412 0.0220153347176302 0.0
0.7722784817893671 -0.0298609729942176 0.0
1.2967249977404087 -0.0811219976417734 0.0
1.4203009934199604 -0.0131926543656637 0.0
0.9895995829580310 0.0116506907649363 0.0
0.5829071360096129 0.2020515967786229 0.0
0.9124812546401256 -0.0048139015005616 0.0
1.1317661798679872 -0.0573724775480756 0.0
0.8118356506573156 0.1000870473904430 0.0
1.1581931412260267 0.1590786979020340 0.0
1.0592158870029424 -0.0005247806941705 0.0
0.6812542714635260 0.0184670190535735 0.0
1.5276309502179675 -0.0212477884700187 0.0
0.9041342073906062 -0.0122185467435515 0.0
1.5509314043445659 -0.0271303296903193 0.0
0.4066360888594066 -0.0295760805939541 0.0
1.4789563747154899 -0.1730539601785428 0.0
1.6045067296244275 -0.0120740912015479 0.0
0.5315060905792530 0.1190831745814782 0.0
0.7789620544926995 -0.0246519951745211 0.0
1.5848026720052144 0.0677564329057009 0.0
0.9341287088857193 0.0961815314620970 0.0
1.5623457236809930 0.0585758454197235 0.0
0.9551495459392529 0.0025536005488720 0.0
0.7997537005464029 -0.0600621067275426 0.0
0.6674582972369899 -0.0398034578858212 0.0
1.0208863825477728 -0.0256782814595865 0.0
1.0041353183337081 0.0297819716828313 0.0
1.4548228049086247 0.0139498824115278 0.0
0.5586813949876750 0.0374228700661333 0.0
0.8830572006837732 -0.0616548648890328 0.0
0.8522816273087904 0.0503912271565840 0.0
1.4231325900665892 0.0807400964059125 0.0
0.8004944757456439 -0.2002065468237905 0.0
0.8301975465595681 -0.0258350528581499 0.0
0.5226528667022843 -0.0487228189661029 0.0
1.0178119011427198 0.0381004142186848 0.0
0.7037954640950240 0.2043244896933743 0.0
0.9034400712444354 0.0438098610183882 0.0
1.2693398094445953 -0.1099465423077773 0.0
0.7618779528475850 -0.0189229152576639 0.0
0.9010598102544751 -0.0015527685691953 0.0
0.9600050467629726 -0.0023378485926676 0.0
0.7926606483821460 -0.0314392001237895 0.0
0.7697732011900460 -0.0441789205433552 0.0
1.4953177947035730 0.0252151637780606 0.0
0.8008595286261577 -0.0312493433923740 0.0
1.0391107150392611 -0.0941707504920832 0.0
0.8394162044963286 0.0547891740469452 0.0
1.2899333949376710 -0.0237424999759871 0.0
0.6317850463143009 -0.0199857506015700 0.0
0.3697007949614986 0.0045720545938841 0.0
1.1985538084575020 -0.1222055431433418 0.0
0.8370301102179082 0.1031527667797912 0.0
0.7951701211064895 -0.0163602683937490 0.0
0.9608917505333399 0.0558069025991931 0.0
1.3975500316760106 -0.0351967020670478 0.0
0.6541222847281654 -0.0214730059864722 0.0
1.2170518759092503 0.1880852910563678 0.0
1.5040817427048865 0.0073132164399138 0.0
0.7108393903036448 -0.0127767659318932 0.0
1.1435075268218264 0.0043182325267735 0.0
1.2842233924788822 -0.0772111440782645 0.0
1.0608027698212317 -0.0585668814745459 0.0
1.4768079734032598 -0.1328626325833295 0.0
0.4504832364508938 0.2205506898343977 0.0
1.7304061743293591 0.0213571341752182 0.0
1.3963737873669329 0.0435068166352647 0.0
0.5544375811535220 0.0509333524713707 0.0
1.4894084450602971 -0.1621709771177372 0.0
1.5182972813862123 -0.0870753220882719 0.0
0.6322752884415238 -0.0078604571499115 0.0
1.0267643641486286 -0.0224431025879427 0.0
0.6730573698858543 -0.0388228163779624 0.0
0.9512636636172308 -0.0773480269538070 0.0
0.7842176050482680 -0.0530655402112031 0.0
0.3831108461391530 0.2209823706637556 0.0
1.1098050805753366 0.2638129163397154 0.0
1.5950682071517195 0.0092897599452928 0.0
0.5769015045640371 0.2230969610785828 0.0
1.5778382683797092 -0.0637916350142723 0.0
1.7460984381746267 0.0987825199881705 0.0
0.5310133250196462 0.2205730262303213 0.0
1.4841900937932642 0.0476794850286288 0.0
1.4153828408365055 -0.1356481941308693 0.0
0.9231663514806400 0.2514613772866912 0.0
1.2865808498084246 -0.0211113964535282 0.0
1.3172663844466990 0.0226681485337110 0.0
0.7802956685884110 0.0898275331954214 0.0
1.3376584381437584 -0.1177378267542262 0.0
0.6954339349134151 -0.0565955222901594 0.0
0.5636182934919203 0.2061536699623988 0.0
0.3923990381668779 0.0187278221128675 0.0
1.1896808072285956 -0.0126181788859170 0.0
0.8832706668817224 -0.2764998093646496 0.0
1.4224537140087850 0.1020538561478534 0.0
1.2975213999747668 -0.1139458561338745 0.0
0.5593021278556768 -0.0119757128607503 0.0
0.5794173815103599 0.0492229411757898 0.0
0.6990590109827768 0.0180810232643178 0.0
1.1815117443540142 -0.0080573573770812 0.0
1.2016499716277220 0.3186309870470161 0.0
0.5610810099168084 -0.0323622337641344 0.0
1.1106645004396885 -0.0720118531185570 0.0
0.5923326253815748 0.0403913135366368 0.0
1.5694378455304399 0.0406004625806007 0.0
0.4483764663560583 0.2556547578995283 0.0
0.7390003599041671 -0.1226015338108544 0.0
1.5422991247118776 -0.0451820900866241 0.0
1.2513443271900662 0.0394938062442207 0.0
1.5421175439885144 -0.1426911521168712 0.0
0.6831367985547124 0.0060004866890427 0.0
0.8722598994326342 -0.0342623205165078 0.0
1.4597356453192341 -0.1036085042326534 0.0
1.4508264868493570 -0.0970592541929119 0.0
1.0285390519116064 0.0669841139771711 0.0
1.4508262938099310 0.0380858520417486 0.0
1.3528445679090135 -0.0611086230220436 0.0
1.2850446453496858 0.1739174571070183 0.0
0.7955512542479343 -0.0068896874312216 0.0
0.7446615869356468 -0.0212828719061506 0.0
0.6770712196662487 -0.0462782041357336 0.0
1.3223754240108856 -0.0635602188246033 0.0
1.3350352005464623 -0.0930250946884907 0.0
1.1615216032014521 0.1240635503247573 0.0
0.3214155534283875 0.0326501168519760 0.0
1.4391983448000609 -0.0913679216567613 0.0
0.2900223218645638 0.1109452425248134 0.0
0.6919842617938690 0.1210925697900655 0.0
1.0325584711147728 0.0557796625681428 0.0
0.5382021340711540 -0.1143899118436699 0.0
1.1456771190735309 -0.3184340103270039 0.0
1.4181024032626297 -0.0725857597080359 0.0
1.6093607846787774 -0.0188936615742547 0.0
0.7315790343229530 0.1116853307229015 0.0
1.5205256400707143 -0.0625873405644644 0.0
0.9324626977066289 -0.0331118711610261 0.0
1.4226488092090805 -0.0654673805878690 0.0
0.9340421387951587 -0.0254946787139997 0.0
0.4744309684154693 0.2183627093327159 0.0
0.9082727100266057 -0.0555261243670077 0.0
1.0262794878597428 -0.0642710970261647 0.0
1.5686520749411668 -0.0454412604514821 0.0