# vtk DataFile Version 3.0
LucasCarvalhoTCC Results
ASCII

DATASET POLYDATA
FIELD FieldData 1
TIME 1 1 double
0.8

POINTS 600 float
0.0 2.0 0.0
0.25 1.989125 0.0
0.5 1.958 0.0
0.75 1.908875 0.0
1.0 1.844 0.0
1.25 1.765625 0.0
1.5 1.676 0.0
1.75 1.577375 0.0
2.0 1.472 0.0
2.25 1.362125 0.0
2.5 1.25 0.0
2.75 1.137875 0.0
3.0 1.028 0.0
3.25 0.922625 0.0
3.5 0.8240000000000001 0.0
3.75 0.734375 0.0
4.0 0.6560000000000001 0.0
4.25 0.5911249999999999 0.0
4.5 0.542 0.0
4.75 0.510875 0.0
5.0 0.5 0.0
5.25 0.5036250000000004 0.0
5.5 0.5140000000000002 0.0
5.75 0.5303750000000003 0.0
6.0 0.5519999999999996 0.0
6.25 0.578125 0.0
6.5 0.6080000000000005 0.0
6.75 0.6408749999999999 0.0
7.0 0.6760000000000002 0.0
7.25 0.7126249999999992 0.0
7.5 0.75 0.0
7.75 0.7873750000000004 0.0
8.0 0.8239999999999994 0.0
8.25 0.8591250000000001 0.0
8.5 0.8919999999999999 0.0
8.75 0.921875 0.0
9.0 0.9479999999999991 0.0
9.25 0.9696250000000011 0.0
9.5 0.9859999999999984 0.0
9.75 0.9963750000000013 0.0
10.0 1.0 0.0
0.0 0.0 0.0
10.0 0.0 0.0
0.124999999999674 1.994562500000014 0.0
0.3749999999999947 1.973562500000001 0.0
0.6249999999999918 1.933437500000002 0.0
0.874999999999979 1.876437500000006 0.0
1.124999999999963 1.804812500000012 0.0
1.374999999999944 1.72081250000002 0.0
1.624999999999985 1.626687500000006 0.0
1.874999999999953 1.52468750000002 0.0
2.124999999999936 1.417062500000028 0.0
2.374999999999952 1.306062500000022 0.0
2.624999999999919 1.193937500000036 0.0
2.87499999999992 1.082937500000035 0.0
3.124999999999946 0.9753125000000229 0.0
3.374999999999948 0.8733125000000204 0.0
3.624999999999972 0.77918750000001 0.0
3.874999999999963 0.6951875000000118 0.0
4.124999999999968 0.6235625000000082 0.0
4.394409538298571 0.5627485257243309 0.0
4.583333333333322 0.5316250000000015 0.0
4.666666666666668 0.5212499999999999 0.0
4.833333333333334 0.50725 0.0
4.916666666666667 0.503625 0.0
5.083333333333334 0.5012083333333335 0.0
5.166666666666666 0.502416666666667 0.0
5.333333333333334 0.5070833333333337 0.0
5.416666666666667 0.510541666666667 0.0
5.583333333333334 0.5194583333333336 0.0
5.666666666666666 0.5249166666666669 0.0
5.833333333333338 0.5375833333333339 0.0
5.916666666666661 0.544791666666666 0.0
6.105781577147724 0.5630541748119369 0.0
6.375 0.5930625000000003 0.0
6.624999999999988 0.6244374999999988 0.0
6.874999999999994 0.6584374999999991 0.0
7.125 0.6943124999999997 0.0
7.375 0.7313124999999996 0.0
7.624999999999994 0.7686874999999992 0.0
7.875 0.8056874999999999 0.0
8.125 0.8415624999999998 0.0
8.374999999999991 0.8755624999999989 0.0
8.624999999999995 0.9069374999999993 0.0
8.874999999999995 0.9349374999999991 0.0
9.125 0.9588125000000001 0.0
9.375 0.9778124999999998 0.0
9.625 0.9911874999999999 0.0
9.875 0.9981875000000007 0.0
0.0 1.799999999999167 0.0
0.0 1.6 0.0
0.0 1.400000000001387 0.0
0.0 1.200000000002774 0.0
0.0 1.000000000004117 0.0
0.0 0.8000000000033287 0.0
0.0 0.6000000000024965 0.0
0.0 0.4000000000016644 0.0
0.0 0.200000000000832 0.0
0.199999999999856 0.0 0.0
0.3999999999996677 0.0 0.0
0.5999999999994683 0.0 0.0
0.7999999999993286 0.0 0.0
0.9999999999991888 0.0 0.0
1.199999999999033 0.0 0.0
1.399999999998576 0.0 0.0
1.599999999997992 0.0 0.0
1.799999999997408 0.0 0.0
1.999999999996825 0.0 0.0
2.199999999996241 0.0 0.0
2.399999999995657 0.0 0.0
2.599999999995073 0.0 0.0
2.79999999999449 0.0 0.0
2.999999999993906 0.0 0.0
3.199999999993322 0.0 0.0
3.399999999992738 0.0 0.0
3.599999999992154 0.0 0.0
3.799999999991571 0.0 0.0
3.999999999991022 0.0 0.0
4.199999999991187 0.0 0.0
4.399999999991491 0.0 0.0
4.599999999991795 0.0 0.0
4.799999999992099 0.0 0.0
4.999999999992403 0.0 0.0
5.199999999992706 0.0 0.0
5.39999999999301 0.0 0.0
5.599999999993313 0.0 0.0
5.799999999993618 0.0 0.0
5.999999999993922 0.0 0.0
6.199999999994227 0.0 0.0
6.39999999999453 0.0 0.0
6.599999999994833 0.0 0.0
6.799999999995138 0.0 0.0
6.999999999995442 0.0 0.0
7.199999999995747 0.0 0.0
7.39999999999605 0.0 0.0
7.599999999996353 0.0 0.0
7.799999999996658 0.0 0.0
7.999999999996962 0.0 0.0
8.199999999997265 0.0 0.0
8.399999999997569 0.0 0.0
8.599999999997873 0.0 0.0
8.799999999998176 0.0 0.0
8.99999999999848 0.0 0.0
9.199999999998786 0.0 0.0
9.399999999999089 0.0 0.0
9.599999999999392 0.0 0.0
9.799999999999697 0.0 0.0
10.0 0.1999999999995579 0.0
10.0 0.3999999999989749 0.0
10.0 0.5999999999989468 0.0
10.0 0.7999999999994734 0.0
0.913963423524136 0.9126937851647636 0.0
1.629657910441747 0.8286436141773268 0.0
2.300136613917738 0.6369890708869279 0.0
0.5989085226155619 1.38125543468559 0.0
1.274155622640533 1.242773398230304 0.0
2.860215383945273 0.5217401976756945 0.0
9.469653920408135 0.4910067017840992 0.0
8.984679546317787 0.4696119782494839 0.0
8.499397693277212 0.4463630640980716 0.0
3.270918412356206 0.4522692359356972 0.0
1.223039611612243 0.5146439900227544 0.0
2.024812732135938 1.00818256045515 0.0
0.5365376864627701 0.5434316309416508 0.0
8.114834335444021 0.4602948767329583 0.0
7.742261962994204 0.4117304941858466 0.0
0.9443382341364558 1.456061359265878 0.0
1.665275621558886 1.201744468407863 0.0
1.89566112584099 0.4397284596316843 0.0
3.691409759982064 0.3560936332572802 0.0
7.368457390036411 0.3792926046732459 0.0
0.5071184951703254 0.9340893429149442 0.0
0.3822273842356539 1.647625881691675 0.0
5.916285335387544 0.2564903116750689 0.0
5.628860531758535 0.2582323053999509 0.0
5.380471017960128 0.2502349014663197 0.0
5.139244585769944 0.2549145445969738 0.0
2.686085237972266 0.8031095648160084 0.0
4.507599040026292 0.263176944655695 0.0
6.983755234374982 0.3380000000001097 0.0
9.720925955181613 0.6635813325201156 0.0
1.288006195687152 0.8759679848503046 0.0
9.20556379558699 0.6923669083350594 0.0
2.319913492084225 0.9512500928262699 0.0
8.73203612228155 0.6151508464420534 0.0
4.868679481352366 0.2526598053940744 0.0
4.10358044398202 0.3012437332986487 0.0
6.602422946953217 0.3126221952225479 0.0
2.534693527909069 0.3583319619586092 0.0
6.193332317503376 0.2894654215336858 0.0
0.8804088217382579 0.3735513844182569 0.0
0.7663303172393539 1.679065267574722 0.0
3.081211528283084 0.6968015573146217 0.0
1.241762689885858 1.521465072418641 0.0
1.573472750763779 0.3374689934575129 0.0
1.475107933015155 1.403918544935278 0.0
0.8212739503602162 1.195790902469637 0.0
4.681049549092561 0.3558177014380842 0.0
9.439519900118443 0.7366884444350511 0.0
2.201393787062887 0.3261463175998884 0.0
2.015369189818184 0.7109460688851087 0.0
8.32727069655695 0.6360373328685593 0.0
8.961488632119996 0.7119124617705204 0.0
9.22773266034565 0.3109430611770705 0.0
0.3000513553073295 1.178778127105867 0.0
1.91985473842554 1.233084801189704 0.0
8.749827252515535 0.3049638092131281 0.0
3.50551132590258 0.5576614504134195 0.0
3.040500962406976 0.290446660105673 0.0
9.72097519930939 0.3037986529514364 0.0
0.3073166349239687 0.3249300260882615 0.0
0.2948185331392187 0.7229775107826154 0.0
1.46029425821417 1.06552904833304 0.0
0.8085718129253527 0.673531272847494 0.0
7.913326191751847 0.5738936378911789 0.0
8.295349499871781 0.2556682497524391 0.0
4.31359646688283 0.3665214152100782 0.0
7.542842082022704 0.5249918217576657 0.0
1.058357552227335 1.116692590939024 0.0
2.214297272750292 1.159898327391242 0.0
2.901187336648686 0.8282146771898153 0.0
3.933498145061447 0.4325241689837319 0.0
7.956006969037984 0.2667411694088205 0.0
7.172393179434975 0.4835114022190097 0.0
1.440243631802057 0.6689433452646625 0.0
3.458541882144431 0.2581755850286561 0.0
5.791617360065465 0.3978542524532168 0.0
5.981529865241493 0.3900667299390458 0.0
1.083462543944253 0.7203994120564634 0.0
1.78518471978951 1.008552691762234 0.0
2.77360122246243 0.2689852172070111 0.0
2.565134389978369 0.9928826788184764 0.0
2.543046005790158 0.6034091352176242 0.0
3.293038780485421 0.6769811703257343 0.0
6.790787388653942 0.4353933509634578 0.0
1.140204059461831 0.2538227257007896 0.0
0.6242104065654487 0.2738473600765566 0.0
6.393430278703709 0.3766405270445946 0.0
8.533059390324546 0.6950580701614406 0.0
0.9961263693263854 1.612128843772703 0.0
1.697598586607002 0.5781950992180334 0.0
8.087930458724863 0.6517815437732153 0.0
0.2748906317360928 1.770749713716887 0.0
0.5785110002099415 1.757022387413085 0.0
5.550004842562332 0.3852675728674634 0.0
4.948161884155141 0.3480305424737933 0.0
1.741244734175577 1.381979611033466 0.0
5.312408927381063 0.3621256994047111 0.0
0.2492139438157334 1.453132031680879 0.0
7.597720022451821 0.2370268512906596 0.0
9.471021754366422 0.2472916581956264 0.0
7.714083843672875 0.600212897672991 0.0
4.520815862079482 0.3946753115680038 0.0
2.47356661122767 0.8007389356831706 0.0
7.325494311403363 0.528948935030723 0.0
7.147005275585743 0.2709670165999667 0.0
3.758046446289313 0.5474783841545341 0.0
3.893717059615281 0.1664960777568404 0.0
2.152835534199412 0.8614028741175742 0.0
8.995993312441625 0.1933410497113667 0.0
1.077676137392001 1.368204555688504 0.0
0.2429906229817933 0.9816066505657851 0.0
0.6261765586985547 1.180540007244081 0.0
9.81151801018651 0.816223424030724 0.0
0.6725442903064565 0.8425384371773644 0.0
1.74584086891446 0.2617492458514414 0.0
0.7667820686164357 1.440842670056678 0.0
8.539133693395232 0.1910926418035274 0.0
5.129145653242096 0.3632579123815574 0.0
6.816538849831732 0.2013284992826486 0.0
2.108503954619862 0.5359795950847274 0.0
6.933669557130528 0.4980836483776163 0.0
3.071406705674529 0.4919421055852253 0.0
2.001240035874449 0.2292738462614773 0.0
4.782473531509697 0.4061213127162872 0.0
0.5734126310178208 1.536352720889636 0.0
9.796714529589472 0.4898048068674991 0.0
5.678359041645315 0.373719883316694 0.0
5.427661572827738 0.3646059266294788 0.0
2.075214597532947 1.226969224366912 0.0
3.251521478555126 0.2637671977660283 0.0
2.722180837291864 0.9710783334409533 0.0
9.333262390342384 0.8479609887828539 0.0
1.367251332770493 0.2041553944563636 0.0
1.870721433742522 0.7905989208842599 0.0
1.387906762913351 1.555741687747287 0.0
9.559918612869 0.8444052974080497 0.0
9.286795039366257 0.4698254290795815 0.0
1.507117480770146 1.225129516597721 0.0
[...]
POINT_DATA 600

VECTORS Velocity float
0.0000000000000000 0.0000000000000000 0.0
0.0000000000000000 0.0000000000000000 0.0
0.0000000000000000 0.0000000000000000 0.0
0.0000000000000000 0.0000000000000000 0.0
0.0000000000000000 0.0000000000000000 0.0
0.0000000000000000 0.0000000000000000 0.0
0.0000000000000000 0.0000000000000000 0.0
0.0000000000000000 0.0000000000000000 0.0
0.0000000000000000 0.0000000000000000 0.0
0.0000000000000000 0.0000000000000000 0.0
0.0000000000000000 0.0000000000000000 0.0
0.0000000000000000 0.0000000000000000 0.0
0.0000000000000000 0.0000000000000000 0.0
0.0000000000000000 0.0000000000000000 0.0
0.0000000000000000 0.0000000000000000 0.0
0.0000000000000000 0.0000000000000000 0.0
0.0000000000000000 0.0000000000000000 0.0
0.0000000000000000 0.0000000000000000 0.0
0.0000000000000000 0.0000000000000000 0.0
0.0000000000000000 0.0000000000000000 0.0
0.0000000000000000 0.0000000000000000 0.0
0.0000000000000000 0.0000000000000000 0.0
0.0000000000000000 0.0000000000000000 0.0
0.0000000000000000 0.0000000000000000 0.0
0.0000000000000000 0.0000000000000000 0.0
0.0000000000000000 0.0000000000000000 0.0
0.0000000000000000 0.0000000000000000 0.0
0.0000000000000000 0.0000000000000000 0.0
0.0000000000000000 0.0000000000000000 0.0
0.0000000000000000 0.0000000000000000 0.0
0.0000000000000000 0.0000000000000000 0.0
0.0000000000000000 0.0000000000000000 0.0
0.0000000000000000 0.0000000000000000 0.0
0.0000000000000000 0.0000000000000000 0.0
0.0000000000000000 0.0000000000000000 0.0
0.0000000000000000 0.0000000000000000 0.0
0.0000000000000000 0.0000000000000000 0.0
0.0000000000000000 0.0000000000000000 0.0
0.0000000000000000 0.0000000000000000 0.0
0.0000000000000000 0.0000000000000000 0.0
0.0000000000000000 0.0000000000000000 0.0
0.0000000000000000 0.0000000000000000 0.0
0.8293260189394954 -0.1265576027506801 0.0
0.0000000000000000 0.0000000000000000 0.0
0.0000000000000000 0.0000000000000000 0.0
0.0000000000000000 0.0000000000000000 0.0
0.0000000000000000 0.0000000000000000 0.0
0.0000000000000000 0.0000000000000000 0.0
0.0000000000000000 0.0000000000000000 0.0
0.0000000000000000 0.0000000000000000 0.0
0.0000000000000000 0.0000000000000000 0.0
0.0000000000000000 0.0000000000000000 0.0
0.0000000000000000 0.0000000000000000 0.0
0.0000000000000000 0.0000000000000000 0.0
0.0000000000000000 0.0000000000000000 0.0
0.0000000000000000 0.0000000000000000 0.0
0.0000000000000000 0.0000000000000000 0.0
0.0000000000000000 0.0000000000000000 0.0
0.0000000000000000 0.0000000000000000 0.0
0.0000000000000000 0.0000000000000000 0.0
0.0000000000000000 0.0000000000000000 0.0
0.0000000000000000 0.0000000000000000 0.0
0.0000000000000000 0.0000000000000000 0.0
0.0000000000000000 0.0000000000000000 0.0
0.0000000000000000 0.0000000000000000 0.0
0.0000000000000000 0.0000000000000000 0.0
0.0000000000000000 0.0000000000000000 0.0
0.0000000000000000 0.0000000000000000 0.0
0.0000000000000000 0.0000000000000000 0.0
0.0000000000000000 0.0000000000000000 0.0
0.0000000000000000 0.0000000000000000 0.0
0.0000000000000000 0.0000000000000000 0.0
0.0000000000000000 0.0000000000000000 0.0
0.0000000000000000 0.0000000000000000 0.0
0.0000000000000000 0.0000000000000000 0.0
0.0000000000000000 0.0000000000000000 0.0
0.0000000000000000 0.0000000000000000 0.0
0.0000000000000000 0.0000000000000000 0.0
0.0000000000000000 0.0000000000000000 0.0
0.0000000000000000 0.0000000000000000 0.0
0.0000000000000000 0.0000000000000000 0.0
0.0000000000000000 0.0000000000000000 0.0
0.0000000000000000 0.0000000000000000 0.0
0.0000000000000000 0.0000000000000000 0.0
0.0000000000000000 0.0000000000000000 0.0
0.0000000000000000 0.0000000000000000 0.0
0.0000000000000000 0.0000000000000000 0.0
0.0000000000000000 0.0000000000000000 0.0
0.0000000000000000 0.0000000000000000 0.0
1.0000000000000000 0.0000000000000000 0.0
1.0000000000000000 0.0000000000000000 0.0
1.0000000000000000 0.0000000000000000 0.0
1.0000000000000000 0.0000000000000000 0.0
1.0000000000000000 0.0000000000000000 0.0
1.0000000000000000 0.0000000000000000 0.0
1.0000000000000000 0.0000000000000000 0.0
1.0000000000000000 0.0000000000000000 0.0
1.0000000000000000 0.0000000000000000 0.0
0.0000000000000000 0.0000000000000000 0.0
0.0000000000000000 0.0000000000000000 0.0
0.0000000000000000 0.0000000000000000 0.0
0.0000000000000000 0.0000000000000000 0.0
0.0000000000000000 0.0000000000000000 0.0
0.0000000000000000 0.0000000000000000 0.0
0.0000000000000000 0.0000000000000000 0.0
0.0000000000000000 0.0000000000000000 0.0
0.0000000000000000 0.0000000000000000 0.0
0.0000000000000000 0.0000000000000000 0.0
0.0000000000000000 0.0000000000000000 0.0
0.0000000000000000 0.0000000000000000 0.0
0.0000000000000000 0.0000000000000000 0.0
0.0000000000000000 0.0000000000000000 0.0
0.0000000000000000 0.0000000000000000 0.0
0.0000000000000000 0.0000000000000000 0.0
0.0000000000000000 0.0000000000000000 0.0
0.0000000000000000 0.0000000000000000 0.0
0.0000000000000000 0.0000000000000000 0.0
0.0000000000000000 0.0000000000000000 0.0
0.0000000000000000 0.0000000000000000 0.0
0.0000000000000000 0.0000000000000000 0.0
0.0000000000000000 0.0000000000000000 0.0
0.0000000000000000 0.0000000000000000 0.0
0.0000000000000000 0.0000000000000000 0.0
0.0000000000000000 0.0000000000000000 0.0
0.0000000000000000 0.0000000000000000 0.0
0.0000000000000000 0.0000000000000000 0.0
0.0000000000000000 0.0000000000000000 0.0
0.0000000000000000 0.0000000000000000 0.0
0.0000000000000000 0.0000000000000000 0.0
0.0000000000000000 0.0000000000000000 0.0
0.0000000000000000 0.0000000000000000 0.0
0.0000000000000000 0.0000000000000000 0.0
0.0000000000000000 0.0000000000000000 0.0
0.0000000000000000 0.0000000000000000 0.0
0.0000000000000000 0.0000000000000000 0.0
0.0000000000000000 0.0000000000000000 0.0
0.0000000000000000 0.0000000000000000 0.0
0.0000000000000000 0.0000000000000000 0.0
0.0000000000000000 0.0000000000000000 0.0
0.0000000000000000 0.0000000000000000 0.0
0.0000000000000000 0.0000000000000000 0.0
0.0000000000000000 0.0000000000000000 0.0
0.0000000000000000 0.0000000000000000 0.0
0.0000000000000000 0.0000000000000000 0.0
0.0000000000000000 0.0000000000000000 0.0
0.0000000000000000 0.0000000000000000 0.0
0.0000000000000000 0.0000000000000000 0.0
1.0708309948483596 -0.4336817065953398 0.0
0.9765745892548299 -0.1617428700608592 0.0
0.9803613715584107 -0.0255956188817675 0.0
1.0739163465670600 0.3465183062176023 0.0
1.1960749835008000 0.0031564818140180 0.0
1.2387527689090001 -0.0468936407857962 0.0
1.2850376860982033 -0.1040222777434754 0.0
1.1741531292149026 -0.0482309826770590 0.0
1.2688676108164885 -0.0720511713280093 0.0
1.3916832548953613 -0.0810064425300286 0.0
1.4562789269054495 -0.0170517243846459 0.0
1.4383363613064659 0.0120200351211494 0.0
1.5105098868890747 0.0736601322631745 0.0
1.4435508853915848 -0.1033409222049694 0.0
1.2118345095731007 -0.0060800439426928 0.0
1.2528497019234455 -0.0836577749190552 0.0
1.1861912492396569 0.1331638053340884 0.0
1.5099162930064498 0.0596915147495614 0.0
1.4952157424825470 0.0193250904894474 0.0
1.2127725998016294 -0.0600443423604975 0.0
1.2726173413961108 -0.0573426782606607 0.0
1.1948596216697807 -0.0119905978920647 0.0
1.5113937254362713 -0.0455797890425997 0.0
1.5565357700558542 0.0364038167936004 0.0
1.1222167236920386 0.0678311563715925 0.0
1.2079910464811392 -0.1580246950917078 0.0
1.4955139645178666 0.0237395570275743 0.0
1.4987769386277250 -0.0205000394837355 0.0
1.5277568789539573 0.0328433526247701 0.0
1.5503209765362718 0.0166392148966683 0.0
1.3313109797151819 -0.1352728931393493 0.0
1.4942362445559902 -0.0045473257198932 0.0
1.6442853550063847 0.0249900998406071 0.0
1.3020664849399137 0.1045038698205525 0.0
1.2247444565087384 -0.0269933577686578 0.0
1.3648343549119801 -0.0355654147245241 0.0
1.2770823730318754 -0.1365215725776148 0.0
1.4421468573737533 0.0894995473566512 0.0
1.5177255798474196 -0.0017312634380376 0.0
1.6244489023133448 -0.0962581536466571 0.0
1.6795165748583760 -0.0451070294787656 0.0
1.2332455572861558 -0.0522810624037959 0.0
1.5867002148408187 -0.0168396958823558 0.0
1.1184040405083573 0.0389262283534672 0.0
1.0454782106518798 -0.0141421716756880 0.0
1.3495893360825137 -0.0829732253113497 0.0
1.0772823713370916 -0.0432156113829444 0.0
1.0317755428210382 -0.0484049228104683 0.0
1.1582284959424620 -0.0154852707574874 0.0
1.1910983098211709 -0.0240692848968016 0.0
1.7740245794007985 -0.1273389663189643 0.0
1.3107080607435124 0.0033073584251470 0.0
1.0854815924475676 -0.0659004677638387 0.0
1.2572606878552244 -0.0629237191123574 0.0
1.3656331961950061 0.0323677994266998 0.0
1.3205665404558280 0.0056590678277878 0.0
1.2607281155038164 -0.0206588552193691 0.0
1.0572662518723450 -0.0095175070943180 0.0
1.1871209372256002 -0.0325077734242165 0.0
1.2669839300391148 0.0128382075928634 0.0
1.4262932792245400 -0.0712976041253784 0.0
1.2435700974397603 -0.0202983305192581 0.0
1.2307374623167009 -0.1715386499543437 0.0
1.1535863910100879 0.2694988218837289 0.0
1.0693737716745058 0.1483417701459115 0.0
1.2563487980610033 -0.0463731711920945 0.0
1.1918936138727745 0.0457334615014625 0.0
1.4003807113611206 0.0604933279989957 0.0
1.2414266475623443 0.0158293244258397 0.0
1.7309128884615426 0.0604651596054845 0.0
1.4550270873118614 0.0147764709686949 0.0
1.2183943305982157 -0.0291683789064716 0.0
1.0507157924412605 -0.0595723248057444 0.0
1.1748804671973327 -0.0409554117140431 0.0
1.5854889172185618 -0.1305629310803776 0.0
1.3069336133942220 0.0505860259462783 0.0
1.4306755076298696 0.0708946947420697 0.0
1.2285617156085065 -0.0259515980003671 0.0
1.2527561349032394 -0.0345865211883641 0.0
1.5033906295291124 -0.0370815716763855 0.0
1.5821762003998681 0.0409537829388965 0.0
1.2092345799170421 0.0005410014433943 0.0
1.2606966630190848 -0.0617569430819498 0.0
1.1479918346324061 -0.0646141366030662 0.0
1.0882301548587914 -0.0846670282576094 0.0
1.3281945702837614 -0.1081940637981724 0.0
1.2556282493799058 -0.1159780935107895 0.0
1.5686388459299334 0.0102072779706713 0.0
0.8005761625981304 0.0219324612534245 0.0
1.0041525660974020 0.0693737228620965 0.0
1.6576718850257179 0.0181167033636944 0.0
1.2612869585383404 0.0083303255672678 0.0
1.0610371315054239 -0.0274426432183635 0.0
1.2149284197303583 -0.0522424757228466 0.0
1.2319931087792217 0.0115618443164330 0.0
1.1609482820359907 -0.2370082923049364 0.0
0.9921957895303900 0.0339236141616401 0.0
1.5598543127261557 0.0108643416697923 0.0
1.6354290861971628 -0.0119526385923261 0.0
1.0222555770129520 0.0270741849165847 0.0
1.5777539538203813 0.0533518091489848 0.0
1.0809341271707142 -0.1103407968344455 0.0
1.2392232994956822 0.0255077017717240 0.0
1.1726920054778149 -0.0289241727834384 0.0
1.2547596864622257 0.0224072772313107 0.0
1.6398859518265370 -0.0280577686819075 0.0
1.3154691144683266 -0.1636222519215205 0.0
1.4255438864739838 0.0365050573909240 0.0
1.4465729027659644 0.0808164536402242 0.0
1.3379335763857714 -0.0566382826162884 0.0
0.7585915907639015 -0.0857999911870111 0.0
1.2646076823296215 -0.1061576100390648 0.0
0.7215179620828691 -0.0087479596493472 0.0
1.2392495710525215 -0.0708526795867337 0.0
1.0382968871424343 0.0350521306179398 0.0
1.1539493556880236 -0.0016199379633147 0.0
1.1903649356451067 0.2048679379490261 0.0
1.1603446412329363 0.0580454121599494 0.0
0.9000214503507732 0.0184213645732423 0.0
1.2138789215690773 -0.0563402619890490 0.0
0.7536256612185891 0.0025854138619220 0.0
1.6204523761657874 0.0056754110953203 0.0
1.0256018813240204 0.0749412121975102 0.0
1.2637967289977894 -0.0794950360523646 0.0
1.1290839423441617 0.0028425484059962 0.0
1.3996038692559756 -0.1168420347347997 0.0
0.6980182296264322 -0.0454860636828829 0.0
1.1588901031181587 -0.0710920288762227 0.0
1.2148269391389359 -0.0564374326174903 0.0
1.2380375786993056 -0.0843333086720380 0.0
1.5977556555299881 -0.0103816953666646 0.0
1.5751479700038029 0.0433740685751273 0.0
1.0460000130715310 0.0198010014542532 0.0
1.2458311457003604 -0.0355100927888602 0.0
0.8306459902163610 0.0597130353119157 0.0
0.6586533678313337 -0.0007658218518075 0.0
0.5949916793389559 0.0300666164640851 0.0
1.2409231295938925 -0.0576373225608715 0.0
0.7163046796339146 0.1222006004946732 0.0
0.7627700408231811 -0.0069864147193212 0.0
1.4465459449381339 0.0089479440084477 0.0
1.2823432691474472 -0.0549522809440273 0.0
1.2427418793902649 -0.0303261093291354 0.0
1.5013008564549921 0.0485397694916405 0.0
1.2369833592715471 -0.0425864298319350 0.0
1.5544966422802944 0.0259680653039343 0.0
1.2010797886468667 0.0641721615308972 0.0
1.1269052662911874 -0.1888385483590526 0.0
1.1384444039493749 0.1135450620562725 0.0
1.1016107600379177 0.1959384892755579 0.0
1.0702674403928134 -0.0464551298547256 0.0
1.1804963310456855 0.0287228413194570 0.0
0.9373250016093257 0.0309321510720631 0.0
0.7095664142877106 0.0957837301616190 0.0
0.9936477058936597 -0.0111076166171857 0.0
1.2162848751913409 -0.0214330069560023 0.0
0.7849188795807419 0.0718559529742132 0.0
1.2148009834706905 0.0182947143610983 0.0
1.2355378039411238 -0.0390447796499753 0.0
1.0090983588509037 -0.0055109503661581 0.0
1.2638067080752431 0.0291017000460503 0.0
1.4498403126219048 0.0402646892019045 0.0
1.1759862125647633 -0.0850767351517096 0.0
1.2587913869956024 -0.0751010998918523 0.0
0.6720621719377403 0.1033601140976855 0.0
0.6717843452134583 0.0787869308132479 0.0
0.8531317139102079 -0.0086299313323976 0.0
1.3864445207638714 -0.0829535345153112 0.0
1.2479408330382049 -0.0497028378212600 0.0
0.6974119230764801 0.1169142996679110 0.0
0.7859046194501376 -0.0318714917390832 0.0
1.1066270271125851 0.0132214616660902 0.0
1.3351123744370395 -0.0694753186391112 0.0
1.0038328672419732 -0.0006480428575132 0.0
1.1723853058069613 0.0102066520709411 0.0
1.2323995349182522 -0.0464608232117990 0.0
0.9569063120702380 0.0070371840662585 0.0
0.8860342584220133 0.0624019142097778 0.0
1.3174102437321316 0.0003641182679928 0.0
0.8103987802161077 -0.0248303695801894 0.0
1.5177803624178539 -0.0211597065039862 0.0
0.7906734413808432 0.0201580660895945 0.0
0.7924551062589399 -0.0227198358785232 0.0
1.2190425424179372 -0.0482201234427238 0.0
1.2213534577850738 -0.0141988492692394 0.0
1.0068331074178869 0.0025385513712301 0.0
0.7341983192832275 0.1388210936964188 0.0
0.8920731645063222 -0.0000764849103130 0.0
1.2034471533295070 -0.0218482064743297 0.0
0.8812247026964604 0.0528784531700588 0.0
1.1903557279510915 0.0892225998760902 0.0
1.2039398643214096 -0.0690319782585034 0.0
0.7173978310814951 0.0192611801990600 0.0
1.4231403443884159 -0.0136820154936062 0.0
0.9288073955990426 -0.0085707957969172 0.0
1.4288237029777795 -0.0182855017775474 0.0
0.5760487259277101 -0.0403396857206047 0.0
1.2906634088364060 -0.1214827301016713 0.0
1.4766681890348221 -0.0145322409965047 0.0
0.7077001695793431 0.0939759489778616 0.0
0.8005943854373724 -0.0249783804153719 0.0
1.5073993699458283 0.0671190060885789 0.0
0.9727573635911694 0.0539050269811818 0.0
1.4866033436796933 0.0447051827781740 0.0
1.1477107824794917 -0.0577267697074222 0.0
0.8310792980014757 -0.0509647247357908 0.0
0.7713096110160080 -0.0123880989602631 0.0
0.9995106509592375 -0.0224533636606744 0.0
0.9873203506798283 0.0281682994252267 0.0
1.4666309705194986 0.0087282465535698 0.0
0.6117592450426670 0.0341027570577526 0.0
0.8793339624875857 -0.0546824058557314 0.0
0.8448427187727396 0.0527358088677834 0.0
1.4029071357041696 0.0574428491734309 0.0
0.8171289396233798 -0.1877628362027484 0.0
0.8290323728934902 -0.0217105432846486 0.0
0.5832177424391269 -0.0411832033571786 0.0
1.1851190345839258 -0.0230296436659708 0.0
0.7876596072493693 0.1500915447397960 0.0
0.8872602546296583 0.0428530060649559 0.0
1.2426825794509866 -0.1255589642804326 0.0
0.8004222956773952 -0.0116180560088250 0.0
0.9134478171054496 -0.0041794753645268 0.0
1.1407748778173394 -0.0493440189057740 0.0
0.8107834360413013 -0.0192508669730661 0.0
0.7737612146886454 -0.0438866506294076 0.0
1.4055142563825418 0.0347075805364393 0.0
0.8301955988988025 -0.0264339710288244 0.0
1.0315284664688615 -0.0407156644517089 0.0
0.8388091559738129 0.0544520321588820 0.0
1.2777592875464767 -0.0710754727834128 0.0
0.6897935364788178 -0.0122250754385382 0.0
0.5339149149789062 0.0118225208782120 0.0
1.1207964053932422 -0.0243073023236822 0.0
0.8627193059957775 0.0828670947527419 0.0
0.7924502995447632 -0.0178173220430443 0.0
0.9535368068824520 0.0502101283030037 0.0
1.1934311418058590 -0.0138778867084126 0.0
0.7195701268841155 -0.0165604880932493 0.0
1.1812649547130327 0.1516704819264571 0.0
1.4171932617736165 -0.0013877434653776 0.0
0.7182514446880959 -0.0088405120565134 0.0
1.1164184690102836 0.0083823978183845 0.0
1.1849255621452923 -0.0321639200463103 0.0
1.1669348004525826 -0.0417944649271181 0.0
1.2483911022465046 -0.0791155599039268 0.0
0.5786749694717530 0.1698943361573073 0.0
1.6948275059536126 0.0197962895295863 0.0
1.1960258346630745 0.0186560736132382 0.0
0.6236842879134823 0.0545734375864214 0.0
1.2734848622000394 -0.0928178618492524 0.0
1.3944135000583935 -0.0953265545020702 0.0
0.7015672065514243 -0.0012285937929655 0.0
1.0224569298665724 0.0033087279500228 0.0
0.6713797649970469 -0.0395058192318834 0.0
0.9495142751406216 -0.0766026658261469 0.0
0.7916339565410240 -0.0577631534956041 0.0
0.5039161671318860 0.1817743076771826 0.0
1.1701745853085928 0.1503348699715899 0.0
1.5824195478908694 0.0172160302345362 0.0
0.6545409655548146 0.1861627395434685 0.0
1.5218935537793183 -0.0419529121528683 0.0
1.7312899536773938 0.0737571136040250 0.0
0.6453830883973831 0.1631977534516328 0.0
1.4436944506949703 0.0468565812646916 0.0
1.3644704151240152 -0.1359840446142833 0.0
0.9393832004784969 0.2366474316605108 0.0
1.3010704970946130 -0.0171250979465987 0.0
1.3222737321756228 0.0151008326584736 0.0
0.7837730738880327 0.0891236047053930 0.0
1.3259599281207646 -0.0829293959213650 0.0
0.7612297061101463 -0.0552099452985590 0.0
0.7018596325400901 0.1544643970724569 0.0
0.5162501783658722 0.0332593585202794 0.0
1.2474158431209361 -0.0332588176087078 0.0
0.9020081096286654 -0.2610973713021044 0.0
1.3876755813671859 0.0841091602530271 0.0
1.2872893272067487 -0.0692714773546335 0.0
0.6060705104971168 -0.0119426330438144 0.0
0.6306564152422005 0.0472849847206767 0.0
0.7185856156375423 0.0159728062955247 0.0
1.0980447764441919 0.0297043253330671 0.0
1.1744323511087971 0.2069135483218250 0.0
0.6219876174456915 -0.0410689437635057 0.0
1.1933737429898117 -0.0355369400592511 0.0
0.6141416379394748 0.0468132779477435 0.0
1.5631244557992940 0.0338635934855567 0.0
0.5377583923231969 0.2125323862140868 0.0
0.7871178524954903 -0.1148582607782630 0.0
1.5021259205732513 -0.0460635843087295 0.0
1.2659451927767960 0.0262053631407582 0.0
1.3735769206620261 -0.1064395601207396 0.0
0.7061018947490267 0.0050561908919518 0.0
0.8685852418133588 -0.0344051507008026 0.0
1.4048753494505337 -0.0907687037827354 0.0
1.2311404704987998 -0.0424323607782473 0.0
1.0161133129099560 0.0615043320809064 0.0
1.4124543423523921 0.0346643485586128 0.0
1.2379460370797191 -0.0571585845506758 0.0
1.1837908850402383 0.0884536002198615 0.0
1.0117166777942044 -0.0033039551186917 0.0
0.7433378812124024 -0.0232878230026433 0.0
0.6756778336843858 -0.0440033216970220 0.0
1.2757772221069819 -0.0642649227061345 0.0
1.2423845295302873 -0.0285256131830412 0.0
1.0881591891240083 0.0988413111614535 0.0
0.4416677989760640 0.0307724674178769 0.0
1.4040256979180847 -0.1073994070157272 0.0
0.3901945685418641 0.1059735644356661 0.0
0.7086976739806531 0.1123966041796687 0.0
1.1774904437165832 -0.0249374303169783 0.0
0.5600553544510783 -0.1229102985629438 0.0
1.1456829150235546 -0.2831886138502884 0.0
1.2620465260724618 -0.0519170008364197 0.0
1.5868672878332946 -0.0133278210636210 0.0
0.7285142508266587 0.1068144944171311 0.0
1.5224033343215819 -0.0565982162566002 0.0
0.9123870471007812 -0.0300759114837749 0.0
1.2703329739255449 -0.0477318639356444 0.0
0.9171912838613425 -0.0266544465472525 0.0
0.5893976754614055 0.1646303531163176 0.0
0.9176566513002479 -0.0485957184555865 0.0
1.0436401699635336 -0.0584281422665431 0.0