# vtk DataFile Version 3.0
LucasCarvalhoTCC Results
ASCII

DATASET POLYDATA
FIELD FieldData 1
TIME 1 1 double
3.5

POINTS 600 float
0.0 2.0 0.0
0.25 1.989125 0.0
0.5 1.958 0.0
0.75 1.908875 0.0
1.0 1.844 0.0
1.25 1.765625 0.0
1.5 1.676 0.0
1.75 1.577375 0.0
2.0 1.472 0.0
2.25 1.362125 0.0
2.5 1.25 0.0
2.75 1.137875 0.0
3.0 1.028 0.0
3.25 0.922625 0.0
3.5 0.8240000000000001 0.0
3.75 0.734375 0.0
4.0 0.6560000000000001 0.0
4.25 0.5911249999999999 0.0
4.5 0.542 0.0
4.75 0.510875 0.0
5.0 0.5 0.0
5.25 0.5036250000000004 0.0
5.5 0.5140000000000002 0.0
5.75 0.5303750000000003 0.0
6.0 0.5519999999999996 0.0
6.25 0.578125 0.0
6.5 0.6080000000000005 0.0
6.75 0.6408749999999999 0.0
7.0 0.6760000000000002 0.0
7.25 0.7126249999999992 0.0
7.5 0.75 0.0
7.75 0.7873750000000004 0.0
8.0 0.8239999999999994 0.0
8.25 0.8591250000000001 0.0
8.5 0.8919999999999999 0.0
8.75 0.921875 0.0
9.0 0.9479999999999991 0.0
9.25 0.9696250000000011 0.0
9.5 0.9859999999999984 0.0
9.75 0.9963750000000013 0.0
10.0 1.0 0.0
0.0 0.0 0.0
10.0 0.0 0.0
0.124999999999674 1.994562500000014 0.0
0.3749999999999947 1.973562500000001 0.0
0.6249999999999918 1.933437500000002 0.0
0.874999999999979 1.876437500000006 0.0
1.124999999999963 1.804812500000012 0.0
1.374999999999944 1.72081250000002 0.0
1.624999999999985 1.626687500000006 0.0
1.874999999999953 1.52468750000002 0.0
2.124999999999936 1.417062500000028 0.0
2.374999999999952 1.306062500000022 0.0
2.624999999999919 1.193937500000036 0.0
2.87499999999992 1.082937500000035 0.0
3.124999999999946 0.9753125000000229 0.0
3.374999999999948 0.8733125000000204 0.0
3.624999999999972 0.77918750000001 0.0
3.874999999999963 0.6951875000000118 0.0
4.124999999999968 0.6235625000000082 0.0
4.394409538298571 0.5627485257243309 0.0
4.583333333333322 0.5316250000000015 0.0
4.666666666666668 0.5212499999999999 0.0
4.833333333333334 0.50725 0.0
4.916666666666667 0.503625 0.0
5.083333333333334 0.5012083333333335 0.0
5.166666666666666 0.502416666666667 0.0
5.333333333333334 0.5070833333333337 0.0
5.416666666666667 0.510541666666667 0.0
5.583333333333334 0.5194583333333336 0.0
5.666666666666666 0.5249166666666669 0.0
5.833333333333338 0.5375833333333339 0.0
5.916666666666661 0.544791666666666 0.0
6.105781577147724 0.5630541748119369 0.0
6.375 0.5930625000000003 0.0
6.624999999999988 0.6244374999999988 0.0
6.874999999999994 0.6584374999999991 0.0
7.125 0.6943124999999997 0.0
7.375 0.7313124999999996 0.0
7.624999999999994 0.7686874999999992 0.0
7.875 0.8056874999999999 0.0
8.125 0.8415624999999998 0.0
8.374999999999991 0.8755624999999989 0.0
8.624999999999995 0.9069374999999993 0.0
8.874999999999995 0.9349374999999991 0.0
9.125 0.9588125000000001 0.0
9.375 0.9778124999999998 0.0
9.625 0.9911874999999999 0.0
9.875 0.9981875000000007 0.0
0.0 1.799999999999167 0.0
0.0 1.6 0.0
0.0 1.400000000001387 0.0
0.0 1.200000000002774 0.0
0.0 1.000000000004117 0.0
0.0 0.8000000000033287 0.0
0.0 0.6000000000024965 0.0
0.0 0.4000000000016644 0.0
0.0 0.200000000000832 0.0
0.199999999999856 0.0 0.0
0.3999999999996677 0.0 0.0
0.5999999999994683 0.0 0.0
0.7999999999993286 0.0 0.0
0.9999999999991888 0.0 0.0
1.199999999999033 0.0 0.0
1.399999999998576 0.0 0.0
1.599999999997992 0.0 0.0
1.799999999997408 0.0 0.0
1.999999999996825 0.0 0.0
2.199999999996241 0.0 0.0
2.399999999995657 0.0 0.0
2.599999999995073 0.0 0.0
2.79999999999449 0.0 0.0
2.999999999993906 0.0 0.0
3.199999999993322 0.0 0.0
3.399999999992738 0.0 0.0
3.599999999992154 0.0 0.0
3.799999999991571 0.0 0.0
3.999999999991022 0.0 0.0
4.199999999991187 0.0 0.0
4.399999999991491 0.0 0.0
4.599999999991795 0.0 0.0
4.799999999992099 0.0 0.0
4.999999999992403 0.0 0.0
5.199999999992706 0.0 0.0
5.39999999999301 0.0 0.0
5.599999999993313 0.0 0.0
5.799999999993618 0.0 0.0
5.999999999993922 0.0 0.0
6.199999999994227 0.0 0.0
6.39999999999453 0.0 0.0
6.599999999994833 0.0 0.0
6.799999999995138 0.0 0.0
6.999999999995442 0.0 0.0
7.199999999995747 0.0 0.0
7.39999999999605 0.0 0.0
7.599999999996353 0.0 0.0
7.799999999996658 0.0 0.0
7.999999999996962 0.0 0.0
8.199999999997265 0.0 0.0
8.399999999997569 0.0 0.0
8.599999999997873 0.0 0.0
8.799999999998176 0.0 0.0
8.99999999999848 0.0 0.0
9.199999999998786 0.0 0.0
9.399999999999089 0.0 0.0
9.599999999999392 0.0 0.0
9.799999999999697 0.0 0.0
10.0 0.1999999999995579 0.0
10.0 0.3999999999989749 0.0
10.0 0.5999999999989468 0.0
10.0 0.7999999999994734 0.0
0.913963423524136 0.9126937851647636 0.0
1.629657910441747 0.8286436141773268 0.0
2.300136613917738 0.6369890708869279 0.0
0.5989085226155619 1.38125543468559 0.0
1.274155622640533 1.242773398230304 0.0
2.860215383945273 0.5217401976756945 0.0
9.469653920408135 0.4910067017840992 0.0
8.984679546317787 0.4696119782494839 0.0
8.499397693277212 0.4463630640980716 0.0
3.270918412356206 0.4522692359356972 0.0
1.223039611612243 0.5146439900227544 0.0
2.024812732135938 1.00818256045515 0.0
0.5365376864627701 0.5434316309416508 0.0
8.114834335444021 0.4602948767329583 0.0
7.742261962994204 0.4117304941858466 0.0
0.9443382341364558 1.456061359265878 0.0
1.665275621558886 1.201744468407863 0.0
1.89566112584099 0.4397284596316843 0.0
3.691409759982064 0.3560936332572802 0.0
7.368457390036411 0.3792926046732459 0.0
0.5071184951703254 0.9340893429149442 0.0
0.3822273842356539 1.647625881691675 0.0
5.916285335387544 0.2564903116750689 0.0
5.628860531758535 0.2582323053999509 0.0
5.380471017960128 0.2502349014663197 0.0
5.139244585769944 0.2549145445969738 0.0
2.686085237972266 0.8031095648160084 0.0
4.507599040026292 0.263176944655695 0.0
6.983755234374982 0.3380000000001097 0.0
9.720925955181613 0.6635813325201156 0.0
1.288006195687152 0.8759679848503046 0.0
9.20556379558699 0.6923669083350594 0.0
2.319913492084225 0.9512500928262699 0.0
8.73203612228155 0.6151508464420534 0.0
4.868679481352366 0.2526598053940744 0.0
4.10358044398202 0.3012437332986487 0.0
6.602422946953217 0.3126221952225479 0.0
2.534693527909069 0.3583319619586092 0.0
6.193332317503376 0.2894654215336858 0.0
0.8804088217382579 0.3735513844182569 0.0
0.7663303172393539 1.679065267574722 0.0
3.081211528283084 0.6968015573146217 0.0
1.241762689885858 1.521465072418641 0.0
1.573472750763779 0.3374689934575129 0.0
1.475107933015155 1.403918544935278 0.0
0.8212739503602162 1.195790902469637 0.0
4.681049549092561 0.3558177014380842 0.0
9.439519900118443 0.7366884444350511 0.0
2.201393787062887 0.3261463175998884 0.0
2.015369189818184 0.7109460688851087 0.0
8.32727069655695 0.6360373328685593 0.0
8.961488632119996 0.7119124617705204 0.0
9.22773266034565 0.3109430611770705 0.0
0.3000513553073295 1.178778127105867 0.0
1.91985473842554 1.233084801189704 0.0
8.749827252515535 0.3049638092131281 0.0
3.50551132590258 0.5576614504134195 0.0
3.040500962406976 0.290446660105673 0.0
9.72097519930939 0.3037986529514364 0.0
0.3073166349239687 0.3249300260882615 0.0
0.2948185331392187 0.7229775107826154 0.0
1.46029425821417 1.06552904833304 0.0
0.8085718129253527 0.673531272847494 0.0
7.913326191751847 0.5738936378911789 0.0
8.295349499871781 0.2556682497524391 0.0
4.31359646688283 0.3665214152100782 0.0
7.542842082022704 0.5249918217576657 0.0
1.058357552227335 1.116692590939024 0.0
2.214297272750292 1.159898327391242 0.0
2.901187336648686 0.8282146771898153 0.0
3.933498145061447 0.4325241689837319 0.0
7.956006969037984 0.2667411694088205 0.0
7.172393179434975 0.4835114022190097 0.0
1.440243631802057 0.6689433452646625 0.0
3.458541882144431 0.2581755850286561 0.0
5.791617360065465 0.3978542524532168 0.0
5.981529865241493 0.3900667299390458 0.0
1.083462543944253 0.7203994120564634 0.0
1.78518471978951 1.008552691762234 0.0
2.77360122246243 0.2689852172070111 0.0
2.565134389978369 0.9928826788184764 0.0
2.543046005790158 0.6034091352176242 0.0
3.293038780485421 0.6769811703257343 0.0
6.790787388653942 0.4353933509634578 0.0
1.140204059461831 0.2538227257007896 0.0
0.6242104065654487 0.2738473600765566 0.0
6.393430278703709 0.3766405270445946 0.0
8.533059390324546 0.6950580701614406 0.0
0.9961263693263854 1.612128843772703 0.0
1.697598586607002 0.5781950992180334 0.0
8.087930458724863 0.6517815437732153 0.0
0.2748906317360928 1.770749713716887 0.0
0.5785110002099415 1.757022387413085 0.0
5.550004842562332 0.3852675728674634 0.0
4.948161884155141 0.3480305424737933 0.0
1.741244734175577 1.381979611033466 0.0
5.312408927381063 0.3621256994047111 0.0
0.2492139438157334 1.453132031680879 0.0
7.597720022451821 0.2370268512906596 0.0
9.471021754366422 0.2472916581956264 0.0
7.714083843672875 0.600212897672991 0.0
4.520815862079482 0.3946753115680038 0.0
2.47356661122767 0.8007389356831706 0.0
7.325494311403363 0.528948935030723 0.0
7.147005275585743 0.2709670165999667 0.0
3.758046446289313 0.5474783841545341 0.0
3.893717059615281 0.1664960777568404 0.0
2.152835534199412 0.8614028741175742 0.0
8.995993312441625 0.1933410497113667 0.0
1.077676137392001 1.368204555688504 0.0
0.2429906229817933 0.9816066505657851 0.0
0.6261765586985547 1.180540007244081 0.0
9.81151801018651 0.816223424030724 0.0
0.6725442903064565 0.8425384371773644 0.0
1.74584086891446 0.2617492458514414 0.0
0.7667820686164357 1.440842670056678 0.0
8.539133693395232 0.1910926418035274 0.0
5.129145653242096 0.3632579123815574 0.0
6.816538849831732 0.2013284992826486 0.0
2.108503954619862 0.5359795950847274 0.0
6.933669557130528 0.4980836483776163 0.0
3.071406705674529 0.4919421055852253 0.0
2.001240035874449 0.2292738462614773 0.0
4.782473531509697 0.4061213127162872 0.0
0.5734126310178208 1.536352720889636 0.0
9.796714529589472 0.4898048068674991 0.0
5.678359041645315 0.373719883316694 0.0
5.427661572827738 0.3646059266294788 0.0
2.075214597532947 1.226969224366912 0.0
3.251521478555126 0.2637671977660283 0.0
2.722180837291864 0.9710783334409533 0.0
9.333262390342384 0.8479609887828539 0.0
1.367251332770493 0.2041553944563636 0.0
1.870721433742522 0.7905989208842599 0.0
1.387906762913351 1.555741687747287 0.0
9.559918612869 0.8444052974080497 0.0
9.286795039366257 0.4698254290795815 0.0
1.507117480770146 1.225129516597721 0.0
[...]
POINT_DATA 600

VECTORS Velocity float
0.0000000000000000 0.0000000000000000 0.0
0.0000000000000000 0.0000000000000000 0.0
0.0000000000000000 0.0000000000000000 0.0
0.0000000000000000 0.0000000000000000 0.0
0.0000000000000000 0.0000000000000000 0.0
0.0000000000000000 0.0000000000000000 0.0
0.0000000000000000 0.0000000000000000 0.0
0.0000000000000000 0.0000000000000000 0.0
0.0000000000000000 0.0000000000000000 0.0
0.0000000000000000 0.0000000000000000 0.0
0.0000000000000000 0.0000000000000000 0.0
0.0000000000000000 0.0000000000000000 0.0
0.0000000000000000 0.0000000000000000 0.0
0.0000000000000000 0.0000000000000000 0.0
0.0000000000000000 0.0000000000000000 0.0
0.0000000000000000 0.0000000000000000 0.0
0.0000000000000000 0.0000000000000000 0.0
0.0000000000000000 0.0000000000000000 0.0
0.0000000000000000 0.0000000000000000 0.0
0.0000000000000000 0.0000000000000000 0.0
0.0000000000000000 0.0000000000000000 0.0
0.0000000000000000 0.0000000000000000 0.0
0.0000000000000000 0.0000000000000000 0.0
0.0000000000000000 0.0000000000000000 0.0
0.0000000000000000 0.0000000000000000 0.0
0.0000000000000000 0.0000000000000000 0.0
0.0000000000000000 0.0000000000000000 0.0
0.0000000000000000 0.0000000000000000 0.0
0.0000000000000000 0.0000000000000000 0.0
0.0000000000000000 0.0000000000000000 0.0
0.0000000000000000 0.0000000000000000 0.0
0.0000000000000000 0.0000000000000000 0.0
0.0000000000000000 0.0000000000000000 0.0
0.0000000000000000 0.0000000000000000 0.0
0.0000000000000000 0.0000000000000000 0.0
0.0000000000000000 0.0000000000000000 0.0
0.0000000000000000 0.0000000000000000 0.0
0.0000000000000000 0.0000000000000000 0.0
0.0000000000000000 0.0000000000000000 0.0
0.0000000000000000 0.0000000000000000 0.0
0.0000000000000000 0.0000000000000000 0.0
0.0000000000000000 0.0000000000000000 0.0
0.8242276255633798 -0.1316208631773550 0.0
0.0000000000000000 0.0000000000000000 0.0
0.0000000000000000 0.0000000000000000 0.0
0.0000000000000000 0.0000000000000000 0.0
0.0000000000000000 0.0000000000000000 0.0
0.0000000000000000 0.0000000000000000 0.0
0.0000000000000000 0.0000000000000000 0.0
0.0000000000000000 0.0000000000000000 0.0
0.0000000000000000 0.0000000000000000 0.0
0.0000000000000000 0.0000000000000000 0.0
0.0000000000000000 0.0000000000000000 0.0
0.0000000000000000 0.0000000000000000 0.0
0.0000000000000000 0.0000000000000000 0.0
0.0000000000000000 0.0000000000000000 0.0
0.0000000000000000 0.0000000000000000 0.0
0.0000000000000000 0.0000000000000000 0.0
0.0000000000000000 0.0000000000000000 0.0
0.0000000000000000 0.0000000000000000 0.0
0.0000000000000000 0.0000000000000000 0.0
0.0000000000000000 0.0000000000000000 0.0
0.0000000000000000 0.0000000000000000 0.0
0.0000000000000000 0.0000000000000000 0.0
0.0000000000000000 0.0000000000000000 0.0
0.0000000000000000 0.0000000000000000 0.0
0.0000000000000000 0.0000000000000000 0.0
0.0000000000000000 0.0000000000000000 0.0
0.0000000000000000 0.0000000000000000 0.0
0.0000000000000000 0.0000000000000000 0.0
0.0000000000000000 0.0000000000000000 0.0
0.0000000000000000 0.0000000000000000 0.0
0.0000000000000000 0.0000000000000000 0.0
0.0000000000000000 0.0000000000000000 0.0
0.0000000000000000 0.0000000000000000 0.0
0.0000000000000000 0.0000000000000000 0.0
0.0000000000000000 0.0000000000000000 0.0
0.0000000000000000 0.0000000000000000 0.0
0.0000000000000000 0.0000000000000000 0.0
0.0000000000000000 0.0000000000000000 0.0
0.0000000000000000 0.0000000000000000 0.0
0.0000000000000000 0.0000000000000000 0.0
0.0000000000000000 0.0000000000000000 0.0
0.0000000000000000 0.0000000000000000 0.0
0.0000000000000000 0.0000000000000000 0.0
0.0000000000000000 0.0000000000000000 0.0
0.0000000000000000 0.0000000000000000 0.0
0.0000000000000000 0.0000000000000000 0.0
0.0000000000000000 0.0000000000000000 0.0
1.0000000000000000 0.0000000000000000 0.0
1.0000000000000000 0.0000000000000000 0.0
1.0000000000000000 0.0000000000000000 0.0
1.0000000000000000 0.0000000000000000 0.0
1.0000000000000000 0.0000000000000000 0.0
1.0000000000000000 0.0000000000000000 0.0
1.0000000000000000 0.0000000000000000 0.0
1.0000000000000000 0.0000000000000000 0.0
1.0000000000000000 0.0000000000000000 0.0
0.0000000000000000 0.0000000000000000 0.0
0.0000000000000000 0.0000000000000000 0.0
0.0000000000000000 0.0000000000000000 0.0
0.0000000000000000 0.0000000000000000 0.0
0.0000000000000000 0.0000000000000000 0.0
0.0000000000000000 0.0000000000000000 0.0
0.0000000000000000 0.0000000000000000 0.0
0.0000000000000000 0.0000000000000000 0.0
0.0000000000000000 0.0000000000000000 0.0
0.0000000000000000 0.0000000000000000 0.0
0.0000000000000000 0.0000000000000000 0.0
0.0000000000000000 0.0000000000000000 0.0
0.0000000000000000 0.0000000000000000 0.0
0.0000000000000000 0.0000000000000000 0.0
0.0000000000000000 0.0000000000000000 0.0
0.0000000000000000 0.0000000000000000 0.0
0.0000000000000000 0.0000000000000000 0.0
0.0000000000000000 0.0000000000000000 0.0
0.0000000000000000 0.0000000000000000 0.0
0.0000000000000000 0.0000000000000000 0.0
0.0000000000000000 0.0000000000000000 0.0
0.0000000000000000 0.0000000000000000 0.0
0.0000000000000000 0.0000000000000000 0.0
0.0000000000000000 0.0000000000000000 0.0
0.0000000000000000 0.0000000000000000 0.0
0.0000000000000000 0.0000000000000000 0.0
0.0000000000000000 0.0000000000000000 0.0
0.0000000000000000 0.0000000000000000 0.0
0.0000000000000000 0.0000000000000000 0.0
0.0000000000000000 0.0000000000000000 0.0
0.0000000000000000 0.0000000000000000 0.0
0.0000000000000000 0.0000000000000000 0.0
0.0000000000000000 0.0000000000000000 0.0
0.0000000000000000 0.0000000000000000 0.0
0.0000000000000000 0.0000000000000000 0.0
0.0000000000000000 0.0000000000000000 0.0
0.0000000000000000 0.0000000000000000 0.0
0.0000000000000000 0.0000000000000000 0.0
0.0000000000000000 0.0000000000000000 0.0
0.0000000000000000 0.0000000000000000 0.0
0.0000000000000000 0.0000000000000000 0.0
0.0000000000000000 0.0000000000000000 0.0
0.0000000000000000 0.0000000000000000 0.0
0.0000000000000000 0.0000000000000000 0.0
0.0000000000000000 0.0000000000000000 0.0
0.0000000000000000 0.0000000000000000 0.0
0.0000000000000000 0.0000000000000000 0.0
0.0000000000000000 0.0000000000000000 0.0
0.0000000000000000 0.0000000000000000 0.0
1.0711241157254581 -0.4640401340114496 0.0
0.9660163814002398 -0.1981493089202584 0.0
0.9840591724278763 -0.0310754465747934 0.0
1.0703823374633983 0.3854234124889396 0.0
1.4045194077356848 0.0062881645255693 0.0
1.4904674797662969 -0.0995009226697205 0.0
1.4728318442695136 -0.1906411908585144 0.0
1.2350394538587304 -0.1258836691364519 0.0
1.3365793043098448 -0.0734778008220240 0.0
1.5329824059437009 -0.1170729870544509 0.0
1.5902543387394699 -0.0303741529945981 0.0
1.5333753646034025 0.0205935843874068 0.0
1.5837723997721491 0.0984225636377577 0.0
1.5107587642539677 -0.1192624065178226 0.0
1.1729273589451381 0.0044214661816256 0.0
1.3636395067943003 -0.0959263854289652 0.0
1.2330852070952436 0.2516332054822887 0.0
1.5844422660036728 0.0724989488261479 0.0
1.5631713332870776 0.0079616097939592 0.0
1.1353602528069566 -0.0416851998914339 0.0
1.2501615926205485 -0.0149654812607068 0.0
1.1384081684521286 -0.0732036132486696 0.0
1.5271052432486452 -0.0567815911727891 0.0
1.5804397756056918 0.0551849231865416 0.0
1.2307304145479705 0.0989502614730492 0.0
1.1234265314212060 -0.2571694865543631 0.0
1.4955680123758250 0.0144290693578763 0.0
1.4955128919665306 -0.0177138755969319 0.0
1.5251685240588919 0.0356260877275731 0.0
1.5471269383384096 0.0132591071478873 0.0
1.3232230569358365 -0.1133208153108626 0.0
1.4872510212396763 0.0099240930979588 0.0
1.6540920408708162 0.0258295832979411 0.0
1.3613123628574639 0.1308507755990901 0.0
1.4849523111345020 -0.0472703990490593 0.0
1.3838783730705548 -0.0480047350074791 0.0
1.3391529572606626 -0.1384272225919414 0.0
1.5115156513188719 0.0930755770080182 0.0
1.5117817154015383 0.0023903833667310 0.0
1.6249179522038917 -0.1066144225842549 0.0
1.6830012632241944 -0.0380709081130875 0.0
1.2004169304144114 -0.1043983915214099 0.0
1.5893071036948208 -0.0202982777882332 0.0
0.9557146056962340 0.0678727698921529 0.0
0.8341465170427216 0.0385374951179653 0.0
1.3816651847896073 -0.0444664405748728 0.0
0.8525259259749501 0.0443195560543945 0.0
0.8386252968471077 -0.0540971605330491 0.0
0.9679667703250998 0.0595060464142301 0.0
1.3496316537419184 -0.0578717820990645 0.0
1.8004954544546459 -0.1359294336452461 0.0
1.2806735224624544 0.0006219706980252 0.0
0.9727287601236101 -0.0720851879887131 0.0
1.4713651426237948 -0.1212163024700313 0.0
1.3649898861169676 0.0417618745862900 0.0
1.3290470704076180 0.0010218751530249 0.0
1.2153669744804592 -0.0203338637297282 0.0
1.0908094294217521 -0.0869904623807568 0.0
1.0476374863531606 0.0323499097963779 0.0
1.2477573373045716 0.0248474118401793 0.0
1.4511446018454437 -0.0618694517286760 0.0
1.2281157000333554 -0.0304263023337912 0.0
1.2021935847915963 -0.2098017714487323 0.0
1.1217130130753443 0.3481293492068314 0.0
1.1038524760190220 0.2115390933384135 0.0
1.4687422677178394 -0.0805006245252877 0.0
1.3121899859035959 0.1140910387588861 0.0
1.3994711538324203 0.0531768824770434 0.0
1.2319442882699978 0.0225060103292898 0.0
1.7382845650508492 0.0681633143096992 0.0
1.4846051694774975 -0.0106029106458479 0.0
1.4215647530617697 -0.0596226217668240 0.0
0.9024529267989261 0.0260618870413062 0.0
1.0943264151399155 -0.0109062752773625 0.0
1.6053480624433158 -0.1343815387947454 0.0
1.3118181987961930 0.0489211040823974 0.0
1.4483080835238120 0.0721999404936749 0.0
1.4052711322320071 -0.0620342230535116 0.0
1.2407980274816126 -0.0434387388175772 0.0
1.5394079981581077 -0.0425740074806916 0.0
1.6095054212663564 0.0403412156767693 0.0
1.4062566753893135 0.0245117790501058 0.0
1.4376987310330933 -0.0912330535562773 0.0
1.0758237380298821 -0.0956569966676325 0.0
0.9678140959553995 0.0134909266510290 0.0
1.5224570646227491 -0.1844656363618446 0.0
1.2376483763316448 -0.0963587153359757 0.0
1.5845273272494880 0.0135188920728433 0.0
0.5625420525664541 0.0302284752381914 0.0
0.8477865503718238 0.1067443605695904 0.0
1.6626020782885309 0.0133749545020554 0.0
1.2483566112301971 -0.0062842138899755 0.0
0.8370017286345224 0.0395499715641450 0.0
1.3256834816512584 -0.1099904848498872 0.0
1.1908759179016424 0.0056019676147991 0.0
1.1015650981008802 -0.2845407650126547 0.0
0.7959822936061037 0.0371419645563965 0.0
1.5948365875746260 0.0114811072642517 0.0
1.6646470357297343 -0.0091854682426483 0.0
0.8147734112034309 0.1139548784172003 0.0
1.6080306399773248 0.0561284850818817 0.0
1.0887537467095321 -0.2348977135118409 0.0
1.2207241809550848 0.0322245507354886 0.0
1.0955734685496350 -0.0424437394312416 0.0
1.2306766334702939 0.0139865718319900 0.0
1.6700360512994430 -0.0216811900163383 0.0
1.4544537462951339 -0.2145829476679096 0.0
1.4485709612835056 0.0459210541089133 0.0
1.4480154207725622 0.0891242320904220 0.0
1.3493909580522465 -0.0520225111844545 0.0
0.7452304521486878 -0.0909230514467831 0.0
1.4636617881358418 -0.1574654017320331 0.0
0.6535346652104386 -0.0045976248371198 0.0
1.2264291778063421 -0.0525780702162787 0.0
1.0588278762137513 0.0145384252235357 0.0
1.2861589709635033 -0.0376467552173784 0.0
1.1682641223105670 0.2323575223554032 0.0
1.3168008658479238 0.1054700229299580 0.0
0.6887607102183801 -0.0047247557879135 0.0
1.2047015813745643 -0.0809569361568720 0.0
0.7055766669039992 0.0046511878117441 0.0
1.6563718344700207 0.0019177242338185 0.0
1.0150795185497681 0.0772662791513646 0.0
1.3484824890508489 -0.1407589559312298 0.0
1.1382007759181452 0.0015081003694597 0.0
1.4876064576380943 -0.1417945221751175 0.0
0.5455452173469162 -0.0459542496679347 0.0
1.1807154191948797 -0.0784242240814719 0.0
1.1687943203951916 -0.1297911561794263 0.0
1.2868357387006006 -0.1043320846945698 0.0
1.6373949692005041 -0.0138614556667904 0.0
1.6048571794677708 0.0503733081739846 0.0
0.8782148904247692 0.0859570305402101 0.0
1.2407088347496491 -0.0444755641690468 0.0
0.7420991033508577 0.1139894209943563 0.0
0.5924968923449496 -0.0026670790969455 0.0
0.4147322060206330 0.0216598738562172 0.0
1.4749568373032698 -0.1115422111217786 0.0
0.5510513414541164 0.1803191518090455 0.0
0.7004465904889188 -0.0056684966399185 0.0
1.5622323537978031 0.0252776313100229 0.0
1.2849154612617046 -0.0503022106784184 0.0
1.2099834398195473 -0.0406023912288510 0.0
1.5678027343681462 0.0695067122859133 0.0
1.4565419653510683 -0.0677681663245029 0.0
1.5716715386589948 0.0288573453588189 0.0
1.1839350274337610 0.0547437289536389 0.0
1.1100955047853160 -0.2618846820347747 0.0
1.2305138079808380 0.1882804888213659 0.0
1.1070777703835226 0.2429122518131833 0.0
1.0737798570520110 -0.0461738033262933 0.0
1.1845106089749833 0.0250375717842193 0.0
0.9319441353116814 0.0425108664301920 0.0
0.5792884357618046 0.1627224424263425 0.0
0.9917827537540692 -0.0116475477464269 0.0
1.4565640260664088 -0.0421803167966450 0.0
0.7658349987440780 0.0675606135416995 0.0
1.1816897141192801 0.0661550221551396 0.0
1.5005092436586296 -0.0753415342514557 0.0
0.8766891836985869 -0.0244015735826028 0.0
1.2624228724473694 0.0301697431709215 0.0
1.5258434111807355 0.0515446353869938 0.0
1.1845414169108597 -0.2075132588174894 0.0
1.3144249264309085 -0.1140739221989034 0.0
0.5084360016653090 0.1585491747501948 0.0
0.5066427929808479 0.1269025963719983 0.0
0.8396784596324951 -0.0137249268534183 0.0
1.4756228017803330 -0.0805008687665908 0.0
1.4870504116905303 -0.0927207249949940 0.0
0.5414431192503041 0.1821864424389287 0.0
0.6817531661523106 -0.0628792020356591 0.0
1.1214144514662976 0.0212924718196797 0.0
1.4702528677482372 -0.1195590206603791 0.0
0.9859662947025718 -0.0135876163432271 0.0
1.3489620786762446 0.0095013314170923 0.0
1.4120299477408476 -0.1049095990531628 0.0
0.9659333968794502 0.0081934466240880 0.0
0.8753938508297305 0.0704132859423543 0.0
1.3265438997801786 -0.0012399034992556 0.0
0.7684661095997840 -0.0259879587354722 0.0
1.5634506365534973 -0.0255252503075840 0.0
0.7658124121419143 0.0220106525915289 0.0
0.7723301292069302 -0.0298456998443182 0.0
1.2964920052148456 -0.0809415739931528 0.0
1.4158340051934655 -0.0130158066704233 0.0
0.9896606523415714 0.0116193506954893 0.0
0.5858108281408669 0.2008971140803554 0.0
0.9124752917415417 -0.0048134126722571 0.0
1.1354595472915461 -0.0565331709186848 0.0
0.8121229267964319 0.0997918389981270 0.0
1.1603388098353313 0.1568647706320512 0.0
1.0632874257066791 -0.0027498689900860 0.0
0.6811900555782368 0.0184598496940209 0.0
1.5273061268309440 -0.0212535195783892 0.0
0.9041669352763493 -0.0122140555196135 0.0
1.5507094480793431 -0.0269804146728590 0.0
0.4101027822272642 -0.0301611338662668 0.0
1.4761386569202171 -0.1727093681253656 0.0
1.6040865715115604 -0.0120836264563964 0.0
0.5349294466022733 0.1188903882206034 0.0
0.7789814699046173 -0.0246531231291417 0.0
1.5847524819987613 0.0678023688399966 0.0
0.9342207820107864 0.0959593825213046 0.0
1.5623612774063755 0.0584256971159977 0.0
0.9606674851006876 0.0004889435028749 0.0
0.7998168514508319 -0.0600211877694231 0.0
0.6682352096474834 -0.0392376646863937 0.0
1.0208601907473445 -0.0256799975028757 0.0
1.0041062924806505 0.0297804436959837 0.0
1.4548389458480222 0.0139419848233156 0.0
0.5586469319212962 0.0374204418881244 0.0
0.8829772979136062 -0.0616502483442015 0.0
0.8522695687904784 0.0504086742237456 0.0
1.4231972242979873 0.0806731973516766 0.0
0.8006111629464034 -0.2001350116685016 0.0
0.8301750253358451 -0.0258512351533359 0.0
0.5226064758964287 -0.0487247852521361 0.0
1.0219295589745043 0.0364121034875346 0.0
0.7050204935040598 0.2034498052706053 0.0
0.9034243368533126 0.0438050032609446 0.0
1.2689612584958665 -0.1111736451664421 0.0
0.7619854798477699 -0.0189029216263554 0.0
0.9010699051720042 -0.0015631622070466 0.0
0.9654670098560549 -0.0033309270946571 0.0
0.7926288360554474 -0.0314100739885906 0.0
0.7697263257049215 -0.0442067085340163 0.0
1.4950787970282415 0.0251770248266072 0.0
0.8008389971210539 -0.0312961537159481 0.0
1.0391252972943394 -0.0924438388635825 0.0
0.8394212369478365 0.0547879647031345 0.0
1.2906810653295249 -0.0252261662505099 0.0
0.6318753295614642 -0.0199009089542058 0.0
0.3734177456519045 0.0047404396661815 0.0
1.1970981275140713 -0.1187968985387794 0.0
0.8369855570464909 0.1031267368213571 0.0
0.7951710276551988 -0.0163596414153156 0.0
0.9608499809357591 0.0558346954746249 0.0
1.3900703405118666 -0.0347451076087488 0.0
0.6540355794000710 -0.0214630944007289 0.0
1.2169531641695368 0.1881888571925893 0.0
1.5040421785475051 0.0072218950736570 0.0
0.7108384673917810 -0.0127736067528296 0.0
1.1435010495444091 0.0043187257641962 0.0
1.2830689824844699 -0.0754978935393240 0.0
1.0648062270688885 -0.0574348431461250 0.0
1.4713128635789900 -0.1318255458626897 0.0
0.4530322504771754 0.2195119640516391 0.0
1.7303873566476402 0.0213537888810651 0.0
1.3904112443687988 0.0418797520717316 0.0
0.5547209533916374 0.0509300792559856 0.0
1.4860201978420955 -0.1605494030007246 0.0
1.5178989212106750 -0.0872778398616622 0.0
0.6325864265177475 -0.0078349993395248 0.0
1.0265523304183435 -0.0214011067210496 0.0
0.6730588657547970 -0.0388238864709304 0.0
0.9512670421808336 -0.0773487218399612 0.0
0.7842164633727814 -0.0530658088681718 0.0
0.3855855850018923 0.2201499526982029 0.0
1.1115942477215246 0.2614583332449343 0.0
1.5950711146979850 0.0093092985112716 0.0
0.5772707094496601 0.2228284379082900 0.0
1.5778199693426440 -0.0637093399919226 0.0
1.7460960570617683 0.0987727361078765 0.0
0.5322958495189967 0.2197951573127847 0.0
1.4841591511451551 0.0475243832353444 0.0
1.4153108519257633 -0.1358728182695996 0.0
0.9233306417069009 0.2513193607503717 0.0
1.2868546420735709 -0.0210596444562967 0.0
1.3173956541435972 0.0225489321465475 0.0
0.7802931973762131 0.0898288710254614 0.0
1.3378254432225805 -0.1175577987308592 0.0
0.6953623811990414 -0.0565983627141075 0.0
0.5661285555769957 0.2051352104147663 0.0
0.3940732466426508 0.0190262197311708 0.0
1.1915208297277069 -0.0137840596279999 0.0
0.8833515724750232 -0.2764507415848595 0.0
1.4221790063055306 0.1020552724368202 0.0
1.2974151658667135 -0.1136840655053917 0.0
0.5593179229926407 -0.0119823745269932 0.0
0.5795379336217760 0.0491815003285367 0.0
0.6990704954326173 0.0180783941026523 0.0
1.1783291036043007 -0.0065637689344043 0.0
1.2019088008171512 0.3163544336453958 0.0
0.5612743486726743 -0.0324187327396289 0.0
1.1130504948972071 -0.0704451214716422 0.0
0.5923541061469174 0.0403995397753852 0.0
1.5694467313403742 0.0405888066261355 0.0
0.4492058833903919 0.2551059980393248 0.0
0.7392116806113699 -0.1225624981684550 0.0
1.5422422317161768 -0.0451474260841766 0.0
1.2515641184537893 0.0393930909744742 0.0
1.5409091798730528 -0.1423254368371016 0.0
0.6831535446469126 0.0059993318065924 0.0
0.8722417017772288 -0.0342582059806781 0.0
1.4596190415280055 -0.1036948815876655 0.0
1.4453341111307758 -0.0952177046639354 0.0
1.0280967582612768 0.0667151066493863 0.0
1.4507432190487277 0.0380420914177557 0.0
1.3507794205015837 -0.0625921839977333 0.0
1.2837669350197216 0.1710883117976372 0.0
0.8015875680439435 -0.0070089840209626 0.0
0.7446397912800010 -0.0212822204875911 0.0
0.6770379225940507 -0.0462781280283241 0.0
1.3219215767688326 -0.0642784990999882 0.0
1.3340551052054195 -0.0900061776983648 0.0
1.1589776275143027 0.1234700469175524 0.0
0.3233691093467004 0.0324188724466656 0.0
1.4391477416796545 -0.0914780670487692 0.0
0.2915431295908479 0.1110382018184865 0.0
0.6919186904991261 0.1211109606193909 0.0
1.0362053659797099 0.0539338080652748 0.0
0.5382053176965671 -0.1143940169099141 0.0
1.1457562764512230 -0.3182802569518314 0.0
1.4144222496010237 -0.0729488951937860 0.0
1.6093658032306413 -0.0188875607803321 0.0
0.7315739129234166 0.1116881677828290 0.0
1.5205709458293111 -0.0625437526712988 0.0
0.9324149019073068 -0.0331134837068767 0.0
1.4195836925705929 -0.0650709805122578 0.0
0.9340109947100759 -0.0254977094487108 0.0
0.4762044708624221 0.2174643884308481 0.0
0.9082797171836765 -0.0555141661851281 0.0
1.0262835448395948 -0.0642723747603708 0.0
1.5686453383543251 -0.0455008707720338 0.0