# vtk DataFile Version 3.0
LucasCarvalhoTCC Results
ASCII

DATASET POLYDATA
FIELD FieldData 1
TIME 1 1 double
0.9

POINTS 600 float
0.0 2.0 0.0
0.25 1.989125 0.0
0.5 1.958 0.0
0.75 1.908875 0.0
1.0 1.844 0.0
1.25 1.765625 0.0
1.5 1.676 0.0
1.75 1.577375 0.0
2.0 1.472 0.0
2.25 1.362125 0.0
2.5 1.25 0.0
2.75 1.137875 0.0
3.0 1.028 0.0
3.25 0.922625 0.0
3.5 0.8240000000000001 0.0
3.75 0.734375 0.0
4.0 0.6560000000000001 0.0
4.25 0.5911249999999999 0.0
4.5 0.542 0.0
4.75 0.510875 0.0
5.0 0.5 0.0
5.25 0.5036250000000004 0.0
5.5 0.5140000000000002 0.0
5.75 0.5303750000000003 0.0
6.0 0.5519999999999996 0.0
6.25 0.578125 0.0
6.5 0.6080000000000005 0.0
6.75 0.6408749999999999 0.0
7.0 0.6760000000000002 0.0
7.25 0.7126249999999992 0.0
7.5 0.75 0.0
7.75 0.7873750000000004 0.0
8.0 0.8239999999999994 0.0
8.25 0.8591250000000001 0.0
8.5 0.8919999999999999 0.0
8.75 0.921875 0.0
9.0 0.9479999999999991 0.0
9.25 0.9696250000000011 0.0
9.5 0.9859999999999984 0.0
9.75 0.9963750000000013 0.0
10.0 1.0 0.0
0.0 0.0 0.0
10.0 0.0 0.0
0.124999999999674 1.994562500000014 0.0
0.3749999999999947 1.973562500000001 0.0
0.6249999999999918 1.933437500000002 0.0
0.874999999999979 1.876437500000006 0.0
1.124999999999963 1.804812500000012 0.0
1.374999999999944 1.72081250000002 0.0
1.624999999999985 1.626687500000006 0.0
1.874999999999953 1.52468750000002 0.0
2.124999999999936 1.417062500000028 0.0
2.374999999999952 1.306062500000022 0.0
2.624999999999919 1.193937500000036 0.0
2.87499999999992 1.082937500000035 0.0
3.124999999999946 0.9753125000000229 0.0
3.374999999999948 0.8733125000000204 0.0
3.624999999999972 0.77918750000001 0.0
3.874999999999963 0.6951875000000118 0.0
4.124999999999968 0.6235625000000082 0.0
4.394409538298571 0.5627485257243309 0.0
4.583333333333322 0.5316250000000015 0.0
4.666666666666668 0.5212499999999999 0.0
4.833333333333334 0.50725 0.0
4.916666666666667 0.503625 0.0
5.083333333333334 0.5012083333333335 0.0
5.166666666666666 0.502416666666667 0.0
5.333333333333334 0.5070833333333337 0.0
5.416666666666667 0.510541666666667 0.0
5.583333333333334 0.5194583333333336 0.0
5.666666666666666 0.5249166666666669 0.0
5.833333333333338 0.5375833333333339 0.0
5.916666666666661 0.544791666666666 0.0
6.105781577147724 0.5630541748119369 0.0
6.375 0.5930625000000003 0.0
6.624999999999988 0.6244374999999988 0.0
6.874999999999994 0.6584374999999991 0.0
7.125 0.6943124999999997 0.0
7.375 0.7313124999999996 0.0
7.624999999999994 0.7686874999999992 0.0
7.875 0.8056874999999999 0.0
8.125 0.8415624999999998 0.0
8.374999999999991 0.8755624999999989 0.0
8.624999999999995 0.9069374999999993 0.0
8.874999999999995 0.9349374999999991 0.0
9.125 0.9588125000000001 0.0
9.375 0.9778124999999998 0.0
9.625 0.9911874999999999 0.0
9.875 0.9981875000000007 0.0
0.0 1.799999999999167 0.0
0.0 1.6 0.0
0.0 1.400000000001387 0.0
0.0 1.200000000002774 0.0
0.0 1.000000000004117 0.0
0.0 0.8000000000033287 0.0
0.0 0.6000000000024965 0.0
0.0 0.4000000000016644 0.0
0.0 0.200000000000832 0.0
0.199999999999856 0.0 0.0
0.3999999999996677 0.0 0.0
0.5999999999994683 0.0 0.0
0.7999999999993286 0.0 0.0
0.9999999999991888 0.0 0.0
1.199999999999033 0.0 0.0
1.399999999998576 0.0 0.0
1.599999999997992 0.0 0.0
1.799999999997408 0.0 0.0
1.999999999996825 0.0 0.0
2.199999999996241 0.0 0.0
2.399999999995657 0.0 0.0
2.599999999995073 0.0 0.0
2.79999999999449 0.0 0.0
2.999999999993906 0.0 0.0
3.199999999993322 0.0 0.0
3.399999999992738 0.0 0.0
3.599999999992154 0.0 0.0
3.799999999991571 0.0 0.0
3.999999999991022 0.0 0.0
4.199999999991187 0.0 0.0
4.399999999991491 0.0 0.0
4.599999999991795 0.0 0.0
4.799999999992099 0.0 0.0
4.999999999992403 0.0 0.0
5.199999999992706 0.0 0.0
5.39999999999301 0.0 0.0
5.599999999993313 0.0 0.0
5.799999999993618 0.0 0.0
5.999999999993922 0.0 0.0
6.199999999994227 0.0 0.0
6.39999999999453 0.0 0.0
6.599999999994833 0.0 0.0
6.799999999995138 0.0 0.0
6.999999999995442 0.0 0.0
7.199999999995747 0.0 0.0
7.39999999999605 0.0 0.0
7.599999999996353 0.0 0.0
7.799999999996658 0.0 0.0
7.999999999996962 0.0 0.0
8.199999999997265 0.0 0.0
8.399999999997569 0.0 0.0
8.599999999997873 0.0 0.0
8.799999999998176 0.0 0.0
8.99999999999848 0.0 0.0
9.199999999998786 0.0 0.0
9.399999999999089 0.0 0.0
9.599999999999392 0.0 0.0
9.799999999999697 0.0 0.0
10.0 0.1999999999995579 0.0
10.0 0.3999999999989749 0.0
10.0 0.5999999999989468 0.0
10.0 0.7999999999994734 0.0
0.913963423524136 0.9126937851647636 0.0
1.629657910441747 0.8286436141773268 0.0
2.300136613917738 0.6369890708869279 0.0
0.5989085226155619 1.38125543468559 0.0
1.274155622640533 1.242773398230304 0.0
2.860215383945273 0.5217401976756945 0.0
9.469653920408135 0.4910067017840992 0.0
8.984679546317787 0.4696119782494839 0.0
8.499397693277212 0.4463630640980716 0.0
3.270918412356206 0.4522692359356972 0.0
1.223039611612243 0.5146439900227544 0.0
2.024812732135938 1.00818256045515 0.0
0.5365376864627701 0.5434316309416508 0.0
8.114834335444021 0.4602948767329583 0.0
7.742261962994204 0.4117304941858466 0.0
0.9443382341364558 1.456061359265878 0.0
1.665275621558886 1.201744468407863 0.0
1.89566112584099 0.4397284596316843 0.0
3.691409759982064 0.3560936332572802 0.0
7.368457390036411 0.3792926046732459 0.0
0.5071184951703254 0.9340893429149442 0.0
0.3822273842356539 1.647625881691675 0.0
5.916285335387544 0.2564903116750689 0.0
5.628860531758535 0.2582323053999509 0.0
5.380471017960128 0.2502349014663197 0.0
5.139244585769944 0.2549145445969738 0.0
2.686085237972266 0.8031095648160084 0.0
4.507599040026292 0.263176944655695 0.0
6.983755234374982 0.3380000000001097 0.0
9.720925955181613 0.6635813325201156 0.0
1.288006195687152 0.8759679848503046 0.0
9.20556379558699 0.6923669083350594 0.0
2.319913492084225 0.9512500928262699 0.0
8.73203612228155 0.6151508464420534 0.0
4.868679481352366 0.2526598053940744 0.0
4.10358044398202 0.3012437332986487 0.0
6.602422946953217 0.3126221952225479 0.0
2.534693527909069 0.3583319619586092 0.0
6.193332317503376 0.2894654215336858 0.0
0.8804088217382579 0.3735513844182569 0.0
0.7663303172393539 1.679065267574722 0.0
3.081211528283084 0.6968015573146217 0.0
1.241762689885858 1.521465072418641 0.0
1.573472750763779 0.3374689934575129 0.0
1.475107933015155 1.403918544935278 0.0
0.8212739503602162 1.195790902469637 0.0
4.681049549092561 0.3558177014380842 0.0
9.439519900118443 0.7366884444350511 0.0
2.201393787062887 0.3261463175998884 0.0
2.015369189818184 0.7109460688851087 0.0
8.32727069655695 0.6360373328685593 0.0
8.961488632119996 0.7119124617705204 0.0
9.22773266034565 0.3109430611770705 0.0
0.3000513553073295 1.178778127105867 0.0
1.91985473842554 1.233084801189704 0.0
8.749827252515535 0.3049638092131281 0.0
3.50551132590258 0.5576614504134195 0.0
3.040500962406976 0.290446660105673 0.0
9.72097519930939 0.3037986529514364 0.0
0.3073166349239687 0.3249300260882615 0.0
0.2948185331392187 0.7229775107826154 0.0
1.46029425821417 1.06552904833304 0.0
0.8085718129253527 0.673531272847494 0.0
7.913326191751847 0.5738936378911789 0.0
8.295349499871781 0.2556682497524391 0.0
4.31359646688283 0.3665214152100782 0.0
7.542842082022704 0.5249918217576657 0.0
1.058357552227335 1.116692590939024 0.0
2.214297272750292 1.159898327391242 0.0
2.901187336648686 0.8282146771898153 0.0
3.933498145061447 0.4325241689837319 0.0
7.956006969037984 0.2667411694088205 0.0
7.172393179434975 0.4835114022190097 0.0
1.440243631802057 0.6689433452646625 0.0
3.458541882144431 0.2581755850286561 0.0
5.791617360065465 0.3978542524532168 0.0
5.981529865241493 0.3900667299390458 0.0
1.083462543944253 0.7203994120564634 0.0
1.78518471978951 1.008552691762234 0.0
2.77360122246243 0.2689852172070111 0.0
2.565134389978369 0.9928826788184764 0.0
2.543046005790158 0.6034091352176242 0.0
3.293038780485421 0.6769811703257343 0.0
6.790787388653942 0.4353933509634578 0.0
1.140204059461831 0.2538227257007896 0.0
0.6242104065654487 0.2738473600765566 0.0
6.393430278703709 0.3766405270445946 0.0
8.533059390324546 0.6950580701614406 0.0
0.9961263693263854 1.612128843772703 0.0
1.697598586607002 0.5781950992180334 0.0
8.087930458724863 0.6517815437732153 0.0
0.2748906317360928 1.770749713716887 0.0
0.5785110002099415 1.757022387413085 0.0
5.550004842562332 0.3852675728674634 0.0
4.948161884155141 0.3480305424737933 0.0
1.741244734175577 1.381979611033466 0.0
5.312408927381063 0.3621256994047111 0.0
0.2492139438157334 1.453132031680879 0.0
7.597720022451821 0.2370268512906596 0.0
9.471021754366422 0.2472916581956264 0.0
7.714083843672875 0.600212897672991 0.0
4.520815862079482 0.3946753115680038 0.0
2.47356661122767 0.8007389356831706 0.0
7.325494311403363 0.528948935030723 0.0
7.147005275585743 0.2709670165999667 0.0
3.758046446289313 0.5474783841545341 0.0
3.893717059615281 0.1664960777568404 0.0
2.152835534199412 0.8614028741175742 0.0
8.995993312441625 0.1933410497113667 0.0
1.077676137392001 1.368204555688504 0.0
0.2429906229817933 0.9816066505657851 0.0
0.6261765586985547 1.180540007244081 0.0
9.81151801018651 0.816223424030724 0.0
0.6725442903064565 0.8425384371773644 0.0
1.74584086891446 0.2617492458514414 0.0
0.7667820686164357 1.440842670056678 0.0
8.539133693395232 0.1910926418035274 0.0
5.129145653242096 0.3632579123815574 0.0
6.816538849831732 0.2013284992826486 0.0
2.108503954619862 0.5359795950847274 0.0
6.933669557130528 0.4980836483776163 0.0
3.071406705674529 0.4919421055852253 0.0
2.001240035874449 0.2292738462614773 0.0
4.782473531509697 0.4061213127162872 0.0
0.5734126310178208 1.536352720889636 0.0
9.796714529589472 0.4898048068674991 0.0
5.678359041645315 0.373719883316694 0.0
5.427661572827738 0.3646059266294788 0.0
2.075214597532947 1.226969224366912 0.0
3.251521478555126 0.2637671977660283 0.0
2.722180837291864 0.9710783334409533 0.0
9.333262390342384 0.8479609887828539 0.0
1.367251332770493 0.2041553944563636 0.0
1.870721433742522 0.7905989208842599 0.0
1.387906762913351 1.555741687747287 0.0
9.559918612869 0.8444052974080497 0.0
9.286795039366257 0.4698254290795815 0.0
1.507117480770146 1.225129516597721 0.0
[...]
POINT_DATA 600

VECTORS Velocity float
0.0000000000000000 0.0000000000000000 0.0
0.0000000000000000 0.0000000000000000 0.0
0.0000000000000000 0.0000000000000000 0.0
0.0000000000000000 0.0000000000000000 0.0
0.0000000000000000 0.0000000000000000 0.0
0.0000000000000000 0.0000000000000000 0.0
0.0000000000000000 0.0000000000000000 0.0
0.0000000000000000 0.0000000000000000 0.0
0.0000000000000000 0.0000000000000000 0.0
0.0000000000000000 0.0000000000000000 0.0
0.0000000000000000 0.0000000000000000 0.0
0.0000000000000000 0.0000000000000000 0.0
0.0000000000000000 0.0000000000000000 0.0
0.0000000000000000 0.0000000000000000 0.0
0.0000000000000000 0.0000000000000000 0.0
0.0000000000000000 0.0000000000000000 0.0
0.0000000000000000 0.0000000000000000 0.0
0.0000000000000000 0.0000000000000000 0.0
0.0000000000000000 0.0000000000000000 0.0
0.0000000000000000 0.0000000000000000 0.0
0.0000000000000000 0.0000000000000000 0.0
0.0000000000000000 0.0000000000000000 0.0
0.0000000000000000 0.0000000000000000 0.0
0.0000000000000000 0.0000000000000000 0.0
0.0000000000000000 0.0000000000000000 0.0
0.0000000000000000 0.0000000000000000 0.0
0.0000000000000000 0.0000000000000000 0.0
0.0000000000000000 0.0000000000000000 0.0
0.0000000000000000 0.0000000000000000 0.0
0.0000000000000000 0.0000000000000000 0.0
0.0000000000000000 0.0000000000000000 0.0
0.0000000000000000 0.0000000000000000 0.0
0.0000000000000000 0.0000000000000000 0.0
0.0000000000000000 0.0000000000000000 0.0
0.0000000000000000 0.0000000000000000 0.0
0.0000000000000000 0.0000000000000000 0.0
0.0000000000000000 0.0000000000000000 0.0
0.0000000000000000 0.0000000000000000 0.0
0.0000000000000000 0.0000000000000000 0.0
0.0000000000000000 0.0000000000000000 0.0
0.0000000000000000 0.0000000000000000 0.0
0.0000000000000000 0.0000000000000000 0.0
0.8282607207074538 -0.1276456185678974 0.0
0.0000000000000000 0.0000000000000000 0.0
0.0000000000000000 0.0000000000000000 0.0
0.0000000000000000 0.0000000000000000 0.0
0.0000000000000000 0.0000000000000000 0.0
0.0000000000000000 0.0000000000000000 0.0
0.0000000000000000 0.0000000000000000 0.0
0.0000000000000000 0.0000000000000000 0.0
0.0000000000000000 0.0000000000000000 0.0
0.0000000000000000 0.0000000000000000 0.0
0.0000000000000000 0.0000000000000000 0.0
0.0000000000000000 0.0000000000000000 0.0
0.0000000000000000 0.0000000000000000 0.0
0.0000000000000000 0.0000000000000000 0.0
0.0000000000000000 0.0000000000000000 0.0
0.0000000000000000 0.0000000000000000 0.0
0.0000000000000000 0.0000000000000000 0.0
0.0000000000000000 0.0000000000000000 0.0
0.0000000000000000 0.0000000000000000 0.0
0.0000000000000000 0.0000000000000000 0.0
0.0000000000000000 0.0000000000000000 0.0
0.0000000000000000 0.0000000000000000 0.0
0.0000000000000000 0.0000000000000000 0.0
0.0000000000000000 0.0000000000000000 0.0
0.0000000000000000 0.0000000000000000 0.0
0.0000000000000000 0.0000000000000000 0.0
0.0000000000000000 0.0000000000000000 0.0
0.0000000000000000 0.0000000000000000 0.0
0.0000000000000000 0.0000000000000000 0.0
0.0000000000000000 0.0000000000000000 0.0
0.0000000000000000 0.0000000000000000 0.0
0.0000000000000000 0.0000000000000000 0.0
0.0000000000000000 0.0000000000000000 0.0
0.0000000000000000 0.0000000000000000 0.0
0.0000000000000000 0.0000000000000000 0.0
0.0000000000000000 0.0000000000000000 0.0
0.0000000000000000 0.0000000000000000 0.0
0.0000000000000000 0.0000000000000000 0.0
0.0000000000000000 0.0000000000000000 0.0
0.0000000000000000 0.0000000000000000 0.0
0.0000000000000000 0.0000000000000000 0.0
0.0000000000000000 0.0000000000000000 0.0
0.0000000000000000 0.0000000000000000 0.0
0.0000000000000000 0.0000000000000000 0.0
0.0000000000000000 0.0000000000000000 0.0
0.0000000000000000 0.0000000000000000 0.0
0.0000000000000000 0.0000000000000000 0.0
1.0000000000000000 0.0000000000000000 0.0
1.0000000000000000 0.0000000000000000 0.0
1.0000000000000000 0.0000000000000000 0.0
1.0000000000000000 0.0000000000000000 0.0
1.0000000000000000 0.0000000000000000 0.0
1.0000000000000000 0.0000000000000000 0.0
1.0000000000000000 0.0000000000000000 0.0
1.0000000000000000 0.0000000000000000 0.0
1.0000000000000000 0.0000000000000000 0.0
0.0000000000000000 0.0000000000000000 0.0
0.0000000000000000 0.0000000000000000 0.0
0.0000000000000000 0.0000000000000000 0.0
0.0000000000000000 0.0000000000000000 0.0
0.0000000000000000 0.0000000000000000 0.0
0.0000000000000000 0.0000000000000000 0.0
0.0000000000000000 0.0000000000000000 0.0
0.0000000000000000 0.0000000000000000 0.0
0.0000000000000000 0.0000000000000000 0.0
0.0000000000000000 0.0000000000000000 0.0
0.0000000000000000 0.0000000000000000 0.0
0.0000000000000000 0.0000000000000000 0.0
0.0000000000000000 0.0000000000000000 0.0
0.0000000000000000 0.0000000000000000 0.0
0.0000000000000000 0.0000000000000000 0.0
0.0000000000000000 0.0000000000000000 0.0
0.0000000000000000 0.0000000000000000 0.0
0.0000000000000000 0.0000000000000000 0.0
0.0000000000000000 0.0000000000000000 0.0
0.0000000000000000 0.0000000000000000 0.0
0.0000000000000000 0.0000000000000000 0.0
0.0000000000000000 0.0000000000000000 0.0
0.0000000000000000 0.0000000000000000 0.0
0.0000000000000000 0.0000000000000000 0.0
0.0000000000000000 0.0000000000000000 0.0
0.0000000000000000 0.0000000000000000 0.0
0.0000000000000000 0.0000000000000000 0.0
0.0000000000000000 0.0000000000000000 0.0
0.0000000000000000 0.0000000000000000 0.0
0.0000000000000000 0.0000000000000000 0.0
0.0000000000000000 0.0000000000000000 0.0
0.0000000000000000 0.0000000000000000 0.0
0.0000000000000000 0.0000000000000000 0.0
0.0000000000000000 0.0000000000000000 0.0
0.0000000000000000 0.0000000000000000 0.0
0.0000000000000000 0.0000000000000000 0.0
0.0000000000000000 0.0000000000000000 0.0
0.0000000000000000 0.0000000000000000 0.0
0.0000000000000000 0.0000000000000000 0.0
0.0000000000000000 0.0000000000000000 0.0
0.0000000000000000 0.0000000000000000 0.0
0.0000000000000000 0.0000000000000000 0.0
0.0000000000000000 0.0000000000000000 0.0
0.0000000000000000 0.0000000000000000 0.0
0.0000000000000000 0.0000000000000000 0.0
0.0000000000000000 0.0000000000000000 0.0
0.0000000000000000 0.0000000000000000 0.0
0.0000000000000000 0.0000000000000000 0.0
0.0000000000000000 0.0000000000000000 0.0
1.0708985309174930 -0.4396316881869544 0.0
0.9747431777461378 -0.1680207627463572 0.0
0.9809548632491852 -0.0256282900529556 0.0
1.0732166960857203 0.3548085210788035 0.0
1.2079589998312039 0.0032265381524034 0.0
1.2539894060964658 -0.0498101273726185 0.0
1.3046769769336730 -0.1115719858414019 0.0
1.1833657837390255 -0.0532575259448629 0.0
1.2794726835416059 -0.0751601733837049 0.0
1.4125691948702288 -0.0858253447469003 0.0
1.4799869729864157 -0.0186040742836857 0.0
1.4562921417657031 0.0130089168941001 0.0
1.5278444502242376 0.0773869656399085 0.0
1.4587302318983635 -0.1076888565848610 0.0
1.2168501360763937 -0.0053493239577828 0.0
1.2648773121474355 -0.0871945745429232 0.0
1.1955285297926335 0.1424354942364950 0.0
1.5273489636800142 0.0618361948711290 0.0
1.5113642221292158 0.0188004377655690 0.0
1.2130492217234838 -0.0608866727379725 0.0
1.2773973820791449 -0.0558913477853783 0.0
1.1966779426318050 -0.0151570852042549 0.0
1.5175489703717158 -0.0478590969710091 0.0
1.5647608686130949 0.0400892593835345 0.0
1.1281602632746750 0.0699203585137867 0.0
1.2029993383988316 -0.1679676021376459 0.0
1.4974392248792274 0.0220498573279195 0.0
1.5002158824744560 -0.0200670889610035 0.0
1.5292558968693779 0.0334666727955264 0.0
1.5517191443022205 0.0157219330129065 0.0
1.3308587857616150 -0.1348012353341651 0.0
1.4933772847609024 -0.0015145152607158 0.0
1.6483037692949991 0.0248352304826840 0.0
1.3128807426968041 0.1099162105164712 0.0
1.2396034713843123 -0.0286821267445563 0.0
1.3670989831638090 -0.0379287514280365 0.0
1.2850208279073396 -0.1397368890724329 0.0
1.4554223152922494 0.0908482874971232 0.0
1.5178593302444749 -0.0008843073958305 0.0
1.6256164109107643 -0.0982090988575173 0.0
1.6811941601813318 -0.0437997227271877 0.0
1.2319739843134008 -0.0563169075014121 0.0
1.5884637440957947 -0.0169833334156489 0.0
1.1076066928176769 0.0399955300898125 0.0
1.0274143818834593 -0.0078202117386743 0.0
1.3553549702239482 -0.0797976887049054 0.0
1.0571487475557408 -0.0354610077955018 0.0
1.0173606039078404 -0.0482541667853131 0.0
1.1424338360219648 -0.0093294508514949 0.0
1.2017581936693889 -0.0264420960266001 0.0
1.7812303937562908 -0.1293719316972912 0.0
1.3040957477577151 0.0024214835292681 0.0
1.0753289756330489 -0.0658133810946556 0.0
1.2747294370946796 -0.0654757068304704 0.0
1.3658425662240958 0.0332506410663988 0.0
1.3210971865974621 0.0058621521555788 0.0
1.2544505591276309 -0.0211948452149043 0.0
1.0588904410187847 -0.0140715170985487 0.0
1.1767007041246835 -0.0275343938863796 0.0
1.2646089945189578 0.0140246689442563 0.0
1.4312280721376447 -0.0696315125277581 0.0
1.2410917260907988 -0.0203698197528203 0.0
1.2266096673513880 -0.1776708181391373 0.0
1.1511079286146169 0.2794336506326128 0.0
1.0734849066792682 0.1530262261589944 0.0
1.2723701502265363 -0.0486168169280020 0.0
1.2051756001599361 0.0485319179388552 0.0
1.4010865303648616 0.0599851946179705 0.0
1.2388432749217575 0.0164892855063627 0.0
1.7336900781723288 0.0621759038371903 0.0
1.4607353764850701 0.0100409727302494 0.0
1.2313542597032028 -0.0315714262715896 0.0
1.0366818950919010 -0.0514593677217351 0.0
1.1636169180551201 -0.0379758379898405 0.0
1.5912696342101376 -0.1307366790871549 0.0
1.3069753175890881 0.0504989910415609 0.0
1.4346446237284434 0.0700678231405592 0.0
1.2446142885837801 -0.0274339136485592 0.0
1.2513881106941693 -0.0364546687228083 0.0
1.5107901872809295 -0.0381387261541051 0.0
1.5894229678592338 0.0412027684193708 0.0
1.2238129660395276 0.0014283746138387 0.0
1.2757166460056419 -0.0651442959665641 0.0
1.1375185446597378 -0.0676964173423757 0.0
1.0743211107615478 -0.0743937889414502 0.0
1.3506331650579761 -0.1159852336542705 0.0
1.2509043099852488 -0.1131029254761027 0.0
1.5734555547195612 0.0111456832773823 0.0
0.7768743544487293 0.0227971491197727 0.0
0.9891090396775817 0.0717228972022280 0.0
1.6596953271893802 0.0168971368408404 0.0
1.2567358997099880 0.0047654338625995 0.0
1.0414828340237785 -0.0221727125416059 0.0
1.2286051155563584 -0.0566504138102705 0.0
1.2238118564495351 0.0098916673137626 0.0
1.1541991848159605 -0.2432825497460875 0.0
0.9713935340321963 0.0348462301210031 0.0
1.5682522031650414 0.0106727352952067 0.0
1.6432511732146806 -0.0117232409556707 0.0
1.0015693289587377 0.0357194035914637 0.0
1.5852878598220788 0.0541106444297698 0.0
1.0837332155520147 -0.1205026466347272 0.0
1.2361185141863487 0.0275671343126432 0.0
1.1606909581128841 -0.0305090150089308 0.0
1.2485705180617268 0.0215092129193788 0.0
1.6480899795254444 -0.0271644125538958 0.0
1.3310710318231160 -0.1711826174348554 0.0
1.4300965815304474 0.0380493105501351 0.0
1.4486233088784650 0.0826137187957702 0.0
1.3387263287052802 -0.0547180710170889 0.0
0.7552843104817684 -0.0869688789038532 0.0
1.2811947022607446 -0.1120709388165642 0.0
0.7097143755252078 -0.0088300065566208 0.0
1.2456096581762768 -0.0725346057215876 0.0
1.0385989365878947 0.0336288963676342 0.0
1.1622217411408651 -0.0034426814415031 0.0
1.1856556620603420 0.2105195345760162 0.0
1.1705412402310664 0.0612813149508271 0.0
0.8805559512410226 0.0175782729315740 0.0
1.2200544670362174 -0.0595336835480977 0.0
0.7435500179003659 0.0022372918262487 0.0
1.6292075607947223 0.0047161063348742 0.0
1.0230119307559296 0.0756420358435261 0.0
1.2751977563218899 -0.0832268308691751 0.0
1.1310970701724836 0.0023514592214507 0.0
1.4154950713509629 -0.1220577179169507 0.0
0.6815861795308426 -0.0455137844547394 0.0
1.1636673476336878 -0.0732742343895823 0.0
1.2189337702475624 -0.0620940128430570 0.0
1.2475775871283630 -0.0870965815385085 0.0
1.6076264217264296 -0.0114637232534138 0.0
1.5829151129003871 0.0447729919858869 0.0
1.0298255216362200 0.0254501860791633 0.0
1.2456172911741312 -0.0369036274066695 0.0
0.8189317399621888 0.0658821383769811 0.0
0.6461322158306432 -0.0013568846957262 0.0
0.5771349757637937 0.0294888555738053 0.0
1.2559181827919697 -0.0601878055015418 0.0
0.6992206438618329 0.1284051684596305 0.0
0.7504286145451162 -0.0072005916296023 0.0
1.4666147608384918 0.0114212451265955 0.0
1.2885281288273416 -0.0563332573075260 0.0
1.2359384961912385 -0.0315121701973750 0.0
1.5173141218933190 0.0515277828464324 0.0
1.2518371208193186 -0.0457188964113734 0.0
1.5595585466679354 0.0278614785256249 0.0
1.1960918858887448 0.0631745416716125 0.0
1.1273904593671877 -0.1972412844149294 0.0
1.1475723023668114 0.1190789223344607 0.0
1.1037757736136462 0.2007457959371020 0.0
1.0713235013120483 -0.0470204865815482 0.0
1.1819096144235059 0.0284606586116933 0.0
0.9357016347331589 0.0336598808530800 0.0
0.6945653946525839 0.1031331973340002 0.0
0.9930098142300056 -0.0113769477472180 0.0
1.2295557761009417 -0.0230465619762493 0.0
0.7802608446286398 0.0708576880251616 0.0
1.2205032971596435 0.0216593460619094 0.0
1.2513576090655658 -0.0409345740485779 0.0
0.9946000864495278 -0.0065136033439986 0.0
1.2636823837902151 0.0304194723443069 0.0
1.4658686839977830 0.0420242968617203 0.0
1.1822040804656202 -0.0945174230587444 0.0
1.2673820766683292 -0.0782436465720880 0.0
0.6550490779605901 0.1089097784725683 0.0
0.6550606192920596 0.0836523468777137 0.0
0.8497341890908461 -0.0096519860407162 0.0
1.4001654431475472 -0.0842471281635257 0.0
1.2632702235849855 -0.0519171673522213 0.0
0.6804113853577655 0.1234233449808439 0.0
0.7733396817572386 -0.0347376610236425 0.0
1.1102122933822258 0.0146041072025328 0.0
1.3531318439971682 -0.0727844973028548 0.0
0.9980774992832118 -0.0029750104458876 0.0
1.1817202727975846 0.0103689005928367 0.0
1.2477222122838891 -0.0487282975863291 0.0
0.9565867864346902 0.0074941258520209 0.0
0.8812296062303987 0.0648441786377375 0.0
1.3203050078115570 0.0006779548114628 0.0
0.8011830725741432 -0.0256685449385922 0.0
1.5306127467191000 -0.0223228189973629 0.0
0.7850708862993633 0.0203742006067642 0.0
0.7879452516422645 -0.0242262771539738 0.0
1.2300231400666937 -0.0519156132733218 0.0
1.2380059367228406 -0.0143860292437826 0.0
1.0038061163638756 0.0039046191213638 0.0
0.7185532205007543 0.1459774567461263 0.0
0.8963073438998709 -0.0010036196769513 0.0
1.2054362398875949 -0.0252309425948698 0.0
0.8696647396770939 0.0591949954158628 0.0
1.1937403465134957 0.0935381990978912 0.0
1.1950342820446587 -0.0648232443957932 0.0
0.7079830096306493 0.0190371337826537 0.0
1.4409872254541147 -0.0145140772215898 0.0
0.9235482074033119 -0.0091197366138973 0.0
1.4508995952087305 -0.0189133027867092 0.0
0.5586488848820331 -0.0405405528942377 0.0
1.3085502153682895 -0.1281251147583220 0.0
1.4977109749027879 -0.0145298458768768 0.0
0.6891577375291971 0.0980692499721638 0.0
0.7956283363712199 -0.0249146103689711 0.0
1.5251743621750129 0.0681094144064903 0.0
0.9648993492170117 0.0599998198743324 0.0
1.5036446282644391 0.0467048256652230 0.0
1.1345582551582074 -0.0544344072347920 0.0
0.8241434413673073 -0.0525320459477226 0.0
0.7577408548555807 -0.0143038803431794 0.0
1.0024588935036711 -0.0235001916073433 0.0
0.9889004913036979 0.0286737652756511 0.0
1.4655737616296682 0.0097971211910888 0.0
0.6008056519460434 0.0345213588923208 0.0
0.8776298658927173 -0.0560043748728921 0.0
0.8456356780197782 0.0531339554402819 0.0
1.4085967836152489 0.0616232280718793 0.0
0.8138760318583385 -0.1904041139813926 0.0
0.8279303435676768 -0.0231803975766281 0.0
0.5715412030497384 -0.0428194228837573 0.0
1.1738257913942700 -0.0193866204613834 0.0
0.7770720526320867 0.1565395705423038 0.0
0.8894841683645736 0.0427281659581451 0.0
1.2481146837287775 -0.1277297743980105 0.0
0.7926124764968266 -0.0130113451582734 0.0
0.9103410129390507 -0.0035565276245104 0.0
1.1291043563878123 -0.0460084196890480 0.0
0.8050714117010659 -0.0212016126669023 0.0
0.7704913831168669 -0.0448830895917089 0.0
1.4220064834901238 0.0338518267067992 0.0
0.8224912920348988 -0.0279283798479153 0.0
1.0323581782818985 -0.0438787259286217 0.0
0.8389863512852039 0.0545838873288671 0.0
1.2851513051210117 -0.0693487708956602 0.0
0.6796436438854525 -0.0125385825764721 0.0
0.5179089628350444 0.0110432295123621 0.0
1.1273218596442123 -0.0298532582243058 0.0
0.8553217286208724 0.0870009618952390 0.0
0.7922082283812281 -0.0179789197672004 0.0
0.9535929121413016 0.0523993967018892 0.0
1.2043978695651008 -0.0151451816963803 0.0
0.7062202134981728 -0.0168673023159366 0.0
1.1880161826087987 0.1593816184336430 0.0
1.4328292351091114 -0.0010051671367264 0.0
0.7157623924748887 -0.0098270487405379 0.0
1.1224537661392542 0.0077020657237128 0.0
1.1951609603212379 -0.0350062685720779 0.0
1.1653475269458418 -0.0421771073102381 0.0
1.2641731730905590 -0.0837457001197057 0.0
0.5651181079832603 0.1750615434975697 0.0
1.7048784468439859 0.0201731502542647 0.0
1.2091250359509589 0.0193443997036279 0.0
0.6123392749928266 0.0535998090213958 0.0
1.2930867380422382 -0.0979594978354616 0.0
1.4140367861461653 -0.0958072885994916 0.0
0.6905792627400485 -0.0019906563421315 0.0
1.0222656101942513 0.0019847814825878 0.0
0.6705269389223251 -0.0395648454230767 0.0
0.9501290830529014 -0.0769371101397475 0.0
0.7894406995848101 -0.0566151172979151 0.0
0.4908828799392547 0.1860555090682667 0.0
1.1678790496109490 0.1609543661004134 0.0
1.5875241255733499 0.0159968779118143 0.0
0.6425552497046860 0.1912702020395373 0.0
1.5362913334202024 -0.0459089360746587 0.0
1.7360023523623664 0.0794200547130822 0.0
0.6314690516195608 0.1697954774551348 0.0
1.4528860313345409 0.0455799216192146 0.0
1.3741063670139739 -0.1388566052885090 0.0
0.9368559588835854 0.2390427721811542 0.0
1.3004039057834491 -0.0168933789340843 0.0
1.3228346007794265 0.0152568389479091 0.0
0.7824102418681856 0.0894801912220578 0.0
1.3296204665075984 -0.0878474509765347 0.0
0.7489439891660878 -0.0554654158240259 0.0
0.6871855375995088 0.1598153613267165 0.0
0.5018296400436120 0.0314092462846591 0.0
1.2478889497323060 -0.0339679651204955 0.0
0.8985280745542740 -0.2640284055076986 0.0
1.3930711225988770 0.0870039949452326 0.0
1.2894241952054359 -0.0746667525544421 0.0
0.5962110211783372 -0.0113904474187318 0.0
0.6205010600260493 0.0470263148738986 0.0
0.7137558310892544 0.0165558815379521 0.0
1.1015648030543812 0.0277224311742119 0.0
1.1810111606350806 0.2174973985851741 0.0
0.6107699852611177 -0.0400451367757163 0.0
1.1905506279891820 -0.0376023458286319 0.0
0.6086189232076902 0.0454519556513439 0.0
1.5667889248438645 0.0352259814041071 0.0
0.5259350650458318 0.2176594645986350 0.0
0.7788424773614481 -0.1159756430748411 0.0
1.5118900360295864 -0.0458237466181912 0.0
1.2644861207010287 0.0275718842327540 0.0
1.3942905434998931 -0.1114578167305942 0.0
0.7005306706154830 0.0052833410211980 0.0
0.8675566642257891 -0.0343181547045344 0.0
1.4166819286823573 -0.0936184513182081 0.0
1.2475185243024873 -0.0459616220080613 0.0
1.0166431537611593 0.0610793859472710 0.0
1.4207059770868937 0.0348832585403312 0.0
1.2502718864412412 -0.0607720892557979 0.0
1.1963115762763790 0.0938272856895505 0.0
0.9962981455208940 -0.0043254909947417 0.0
0.7415660511770000 -0.0228247066337758 0.0
0.6731462937500226 -0.0447116947285785 0.0
1.2843889103783559 -0.0662837247539314 0.0
1.2546122579868266 -0.0298279644125952 0.0
1.0919145032223576 0.1005582088097857 0.0
0.4271686228766940 0.0301547343522404 0.0
1.4116123140317633 -0.1056896781360860 0.0
0.3771402042760832 0.1078427037846394 0.0
0.7028424475345143 0.1146926088119537 0.0
1.1681606532016546 -0.0182474169499721 0.0
0.5541155109518988 -0.1212026089465778 0.0
1.1462551003004218 -0.2895988772825752 0.0
1.2769647942802504 -0.0549484035873768 0.0
1.5949095311237542 -0.0142388168969779 0.0
0.7281531948833593 0.1085917943023658 0.0
1.5240717651690103 -0.0575929732423626 0.0
0.9139317460648240 -0.0309462880596482 0.0
1.2863679811987052 -0.0494810444200613 0.0
0.9186975600279698 -0.0266947898940403 0.0
0.5762351389643035 0.1704635958895880 0.0
0.9153167569646969 -0.0500568816911862 0.0
1.0397205054226639 -0.0601531416366549 0.0