# vtk DataFile Version 3.0
LucasCarvalhoTCC Results
ASCII

DATASET POLYDATA
FIELD FieldData 1
TIME 1 1 double
0.6000000000000001

POINTS 600 float
0.0 2.0 0.0
0.25 1.989125 0.0
0.5 1.958 0.0
0.75 1.908875 0.0
1.0 1.844 0.0
1.25 1.765625 0.0
1.5 1.676 0.0
1.75 1.577375 0.0
2.0 1.472 0.0
2.25 1.362125 0.0
2.5 1.25 0.0
2.75 1.137875 0.0
3.0 1.028 0.0
3.25 0.922625 0.0
3.5 0.8240000000000001 0.0
3.75 0.734375 0.0
4.0 0.6560000000000001 0.0
4.25 0.5911249999999999 0.0
4.5 0.542 0.0
4.75 0.510875 0.0
5.0 0.5 0.0
5.25 0.5036250000000004 0.0
5.5 0.5140000000000002 0.0
5.75 0.5303750000000003 0.0
6.0 0.5519999999999996 0.0
6.25 0.578125 0.0
6.5 0.6080000000000005 0.0
6.75 0.6408749999999999 0.0
7.0 0.6760000000000002 0.0
7.25 0.7126249999999992 0.0
7.5 0.75 0.0
7.75 0.7873750000000004 0.0
8.0 0.8239999999999994 0.0
8.25 0.8591250000000001 0.0
8.5 0.8919999999999999 0.0
8.75 0.921875 0.0
9.0 0.9479999999999991 0.0
9.25 0.9696250000000011 0.0
9.5 0.9859999999999984 0.0
9.75 0.9963750000000013 0.0
10.0 1.0 0.0
0.0 0.0 0.0
10.0 0.0 0.0
0.124999999999674 1.994562500000014 0.0
0.3749999999999947 1.973562500000001 0.0
0.6249999999999918 1.933437500000002 0.0
0.874999999999979 1.876437500000006 0.0
1.124999999999963 1.804812500000012 0.0
1.374999999999944 1.72081250000002 0.0
1.624999999999985 1.626687500000006 0.0
1.874999999999953 1.52468750000002 0.0
2.124999999999936 1.417062500000028 0.0
2.374999999999952 1.306062500000022 0.0
2.624999999999919 1.193937500000036 0.0
2.87499999999992 1.082937500000035 0.0
3.124999999999946 0.9753125000000229 0.0
3.374999999999948 0.8733125000000204 0.0
3.624999999999972 0.77918750000001 0.0
3.874999999999963 0.6951875000000118 0.0
4.124999999999968 0.6235625000000082 0.0
4.394409538298571 0.5627485257243309 0.0
4.583333333333322 0.5316250000000015 0.0
4.666666666666668 0.5212499999999999 0.0
4.833333333333334 0.50725 0.0
4.916666666666667 0.503625 0.0
5.083333333333334 0.5012083333333335 0.0
5.166666666666666 0.502416666666667 0.0
5.333333333333334 0.5070833333333337 0.0
5.416666666666667 0.510541666666667 0.0
5.583333333333334 0.5194583333333336 0.0
5.666666666666666 0.5249166666666669 0.0
5.833333333333338 0.5375833333333339 0.0
5.916666666666661 0.544791666666666 0.0
6.105781577147724 0.5630541748119369 0.0
6.375 0.5930625000000003 0.0
6.624999999999988 0.6244374999999988 0.0
6.874999999999994 0.6584374999999991 0.0
7.125 0.6943124999999997 0.0
7.375 0.7313124999999996 0.0
7.624999999999994 0.7686874999999992 0.0
7.875 0.8056874999999999 0.0
8.125 0.8415624999999998 0.0
8.374999999999991 0.8755624999999989 0.0
8.624999999999995 0.9069374999999993 0.0
8.874999999999995 0.9349374999999991 0.0
9.125 0.9588125000000001 0.0
9.375 0.9778124999999998 0.0
9.625 0.9911874999999999 0.0
9.875 0.9981875000000007 0.0
0.0 1.799999999999167 0.0
0.0 1.6 0.0
0.0 1.400000000001387 0.0
0.0 1.200000000002774 0.0
0.0 1.000000000004117 0.0
0.0 0.8000000000033287 0.0
0.0 0.6000000000024965 0.0
0.0 0.4000000000016644 0.0
0.0 0.200000000000832 0.0
0.199999999999856 0.0 0.0
0.3999999999996677 0.0 0.0
0.5999999999994683 0.0 0.0
0.7999999999993286 0.0 0.0
0.9999999999991888 0.0 0.0
1.199999999999033 0.0 0.0
1.399999999998576 0.0 0.0
1.599999999997992 0.0 0.0
1.799999999997408 0.0 0.0
1.999999999996825 0.0 0.0
2.199999999996241 0.0 0.0
2.399999999995657 0.0 0.0
2.599999999995073 0.0 0.0
2.79999999999449 0.0 0.0
2.999999999993906 0.0 0.0
3.199999999993322 0.0 0.0
3.399999999992738 0.0 0.0
3.599999999992154 0.0 0.0
3.799999999991571 0.0 0.0
3.999999999991022 0.0 0.0
4.199999999991187 0.0 0.0
4.399999999991491 0.0 0.0
4.599999999991795 0.0 0.0
4.799999999992099 0.0 0.0
4.999999999992403 0.0 0.0
5.199999999992706 0.0 0.0
5.39999999999301 0.0 0.0
5.599999999993313 0.0 0.0
5.799999999993618 0.0 0.0
5.999999999993922 0.0 0.0
6.199999999994227 0.0 0.0
6.39999999999453 0.0 0.0
6.599999999994833 0.0 0.0
6.799999999995138 0.0 0.0
6.999999999995442 0.0 0.0
7.199999999995747 0.0 0.0
7.39999999999605 0.0 0.0
7.599999999996353 0.0 0.0
7.799999999996658 0.0 0.0
7.999999999996962 0.0 0.0
8.199999999997265 0.0 0.0
8.399999999997569 0.0 0.0
8.599999999997873 0.0 0.0
8.799999999998176 0.0 0.0
8.99999999999848 0.0 0.0
9.199999999998786 0.0 0.0
9.399999999999089 0.0 0.0
9.599999999999392 0.0 0.0
9.799999999999697 0.0 0.0
10.0 0.1999999999995579 0.0
10.0 0.3999999999989749 0.0
10.0 0.5999999999989468 0.0
10.0 0.7999999999994734 0.0
0.913963423524136 0.9126937851647636 0.0
1.629657910441747 0.8286436141773268 0.0
2.300136613917738 0.6369890708869279 0.0
0.5989085226155619 1.38125543468559 0.0
1.274155622640533 1.242773398230304 0.0
2.860215383945273 0.5217401976756945 0.0
9.469653920408135 0.4910067017840992 0.0
8.984679546317787 0.4696119782494839 0.0
8.499397693277212 0.4463630640980716 0.0
3.270918412356206 0.4522692359356972 0.0
1.223039611612243 0.5146439900227544 0.0
2.024812732135938 1.00818256045515 0.0
0.5365376864627701 0.5434316309416508 0.0
8.114834335444021 0.4602948767329583 0.0
7.742261962994204 0.4117304941858466 0.0
0.9443382341364558 1.456061359265878 0.0
1.665275621558886 1.201744468407863 0.0
1.89566112584099 0.4397284596316843 0.0
3.691409759982064 0.3560936332572802 0.0
7.368457390036411 0.3792926046732459 0.0
0.5071184951703254 0.9340893429149442 0.0
0.3822273842356539 1.647625881691675 0.0
5.916285335387544 0.2564903116750689 0.0
5.628860531758535 0.2582323053999509 0.0
5.380471017960128 0.2502349014663197 0.0
5.139244585769944 0.2549145445969738 0.0
2.686085237972266 0.8031095648160084 0.0
4.507599040026292 0.263176944655695 0.0
6.983755234374982 0.3380000000001097 0.0
9.720925955181613 0.6635813325201156 0.0
1.288006195687152 0.8759679848503046 0.0
9.20556379558699 0.6923669083350594 0.0
2.319913492084225 0.9512500928262699 0.0
8.73203612228155 0.6151508464420534 0.0
4.868679481352366 0.2526598053940744 0.0
4.10358044398202 0.3012437332986487 0.0
6.602422946953217 0.3126221952225479 0.0
2.534693527909069 0.3583319619586092 0.0
6.193332317503376 0.2894654215336858 0.0
0.8804088217382579 0.3735513844182569 0.0
0.7663303172393539 1.679065267574722 0.0
3.081211528283084 0.6968015573146217 0.0
1.241762689885858 1.521465072418641 0.0
1.573472750763779 0.3374689934575129 0.0
1.475107933015155 1.403918544935278 0.0
0.8212739503602162 1.195790902469637 0.0
4.681049549092561 0.3558177014380842 0.0
9.439519900118443 0.7366884444350511 0.0
2.201393787062887 0.3261463175998884 0.0
2.015369189818184 0.7109460688851087 0.0
8.32727069655695 0.6360373328685593 0.0
8.961488632119996 0.7119124617705204 0.0
9.22773266034565 0.3109430611770705 0.0
0.3000513553073295 1.178778127105867 0.0
1.91985473842554 1.233084801189704 0.0
8.749827252515535 0.3049638092131281 0.0
3.50551132590258 0.5576614504134195 0.0
3.040500962406976 0.290446660105673 0.0
9.72097519930939 0.3037986529514364 0.0
0.3073166349239687 0.3249300260882615 0.0
0.2948185331392187 0.7229775107826154 0.0
1.46029425821417 1.06552904833304 0.0
0.8085718129253527 0.673531272847494 0.0
7.913326191751847 0.5738936378911789 0.0
8.295349499871781 0.2556682497524391 0.0
4.31359646688283 0.3665214152100782 0.0
7.542842082022704 0.5249918217576657 0.0
1.058357552227335 1.116692590939024 0.0
2.214297272750292 1.159898327391242 0.0
2.901187336648686 0.8282146771898153 0.0
3.933498145061447 0.4325241689837319 0.0
7.956006969037984 0.2667411694088205 0.0
7.172393179434975 0.4835114022190097 0.0
1.440243631802057 0.6689433452646625 0.0
3.458541882144431 0.2581755850286561 0.0
5.791617360065465 0.3978542524532168 0.0
5.981529865241493 0.3900667299390458 0.0
1.083462543944253 0.7203994120564634 0.0
1.78518471978951 1.008552691762234 0.0
2.77360122246243 0.2689852172070111 0.0
2.565134389978369 0.9928826788184764 0.0
2.543046005790158 0.6034091352176242 0.0
3.293038780485421 0.6769811703257343 0.0
6.790787388653942 0.4353933509634578 0.0
1.140204059461831 0.2538227257007896 0.0
0.6242104065654487 0.2738473600765566 0.0
6.393430278703709 0.3766405270445946 0.0
8.533059390324546 0.6950580701614406 0.0
0.9961263693263854 1.612128843772703 0.0
1.697598586607002 0.5781950992180334 0.0
8.087930458724863 0.6517815437732153 0.0
0.2748906317360928 1.770749713716887 0.0
0.5785110002099415 1.757022387413085 0.0
5.550004842562332 0.3852675728674634 0.0
4.948161884155141 0.3480305424737933 0.0
1.741244734175577 1.381979611033466 0.0
5.312408927381063 0.3621256994047111 0.0
0.2492139438157334 1.453132031680879 0.0
7.597720022451821 0.2370268512906596 0.0
9.471021754366422 0.2472916581956264 0.0
7.714083843672875 0.600212897672991 0.0
4.520815862079482 0.3946753115680038 0.0
2.47356661122767 0.8007389356831706 0.0
7.325494311403363 0.528948935030723 0.0
7.147005275585743 0.2709670165999667 0.0
3.758046446289313 0.5474783841545341 0.0
3.893717059615281 0.1664960777568404 0.0
2.152835534199412 0.8614028741175742 0.0
8.995993312441625 0.1933410497113667 0.0
1.077676137392001 1.368204555688504 0.0
0.2429906229817933 0.9816066505657851 0.0
0.6261765586985547 1.180540007244081 0.0
9.81151801018651 0.816223424030724 0.0
0.6725442903064565 0.8425384371773644 0.0
1.74584086891446 0.2617492458514414 0.0
0.7667820686164357 1.440842670056678 0.0
8.539133693395232 0.1910926418035274 0.0
5.129145653242096 0.3632579123815574 0.0
6.816538849831732 0.2013284992826486 0.0
2.108503954619862 0.5359795950847274 0.0
6.933669557130528 0.4980836483776163 0.0
3.071406705674529 0.4919421055852253 0.0
2.001240035874449 0.2292738462614773 0.0
4.782473531509697 0.4061213127162872 0.0
0.5734126310178208 1.536352720889636 0.0
9.796714529589472 0.4898048068674991 0.0
5.678359041645315 0.373719883316694 0.0
5.427661572827738 0.3646059266294788 0.0
2.075214597532947 1.226969224366912 0.0
3.251521478555126 0.2637671977660283 0.0
2.722180837291864 0.9710783334409533 0.0
9.333262390342384 0.8479609887828539 0.0
1.367251332770493 0.2041553944563636 0.0
1.870721433742522 0.7905989208842599 0.0
1.387906762913351 1.555741687747287 0.0
9.559918612869 0.8444052974080497 0.0
9.286795039366257 0.4698254290795815 0.0
[...]
POINT_DATA 600

VECTORS Velocity float
0.0000000000000000 0.0000000000000000 0.0
0.0000000000000000 0.0000000000000000 0.0
0.0000000000000000 0.0000000000000000 0.0
0.0000000000000000 0.0000000000000000 0.0
0.0000000000000000 0.0000000000000000 0.0
0.0000000000000000 0.0000000000000000 0.0
0.0000000000000000 0.0000000000000000 0.0
0.0000000000000000 0.0000000000000000 0.0
0.0000000000000000 0.0000000000000000 0.0
0.0000000000000000 0.0000000000000000 0.0
0.0000000000000000 0.0000000000000000 0.0
0.0000000000000000 0.0000000000000000 0.0
0.0000000000000000 0.0000000000000000 0.0
0.0000000000000000 0.0000000000000000 0.0
0.0000000000000000 0.0000000000000000 0.0
0.0000000000000000 0.0000000000000000 0.0
0.0000000000000000 0.0000000000000000 0.0
0.0000000000000000 0.0000000000000000 0.0
0.0000000000000000 0.0000000000000000 0.0
0.0000000000000000 0.0000000000000000 0.0
0.0000000000000000 0.0000000000000000 0.0
0.0000000000000000 0.0000000000000000 0.0
0.0000000000000000 0.0000000000000000 0.0
0.0000000000000000 0.0000000000000000 0.0
0.0000000000000000 0.0000000000000000 0.0
0.0000000000000000 0.0000000000000000 0.0
0.0000000000000000 0.0000000000000000 0.0
0.0000000000000000 0.0000000000000000 0.0
0.0000000000000000 0.0000000000000000 0.0
0.0000000000000000 0.0000000000000000 0.0
0.0000000000000000 0.0000000000000000 0.0
0.0000000000000000 0.0000000000000000 0.0
0.0000000000000000 0.0000000000000000 0.0
0.0000000000000000 0.0000000000000000 0.0
0.0000000000000000 0.0000000000000000 0.0
0.0000000000000000 0.0000000000000000 0.0
0.0000000000000000 0.0000000000000000 0.0
0.0000000000000000 0.0000000000000000 0.0
0.0000000000000000 0.0000000000000000 0.0
0.0000000000000000 0.0000000000000000 0.0
0.0000000000000000 0.0000000000000000 0.0
0.0000000000000000 0.0000000000000000 0.0
0.8328548645857455 -0.1229731010868848 0.0
0.0000000000000000 0.0000000000000000 0.0
0.0000000000000000 0.0000000000000000 0.0
0.0000000000000000 0.0000000000000000 0.0
0.0000000000000000 0.0000000000000000 0.0
0.0000000000000000 0.0000000000000000 0.0
0.0000000000000000 0.0000000000000000 0.0
0.0000000000000000 0.0000000000000000 0.0
0.0000000000000000 0.0000000000000000 0.0
0.0000000000000000 0.0000000000000000 0.0
0.0000000000000000 0.0000000000000000 0.0
0.0000000000000000 0.0000000000000000 0.0
0.0000000000000000 0.0000000000000000 0.0
0.0000000000000000 0.0000000000000000 0.0
0.0000000000000000 0.0000000000000000 0.0
0.0000000000000000 0.0000000000000000 0.0
0.0000000000000000 0.0000000000000000 0.0
0.0000000000000000 0.0000000000000000 0.0
0.0000000000000000 0.0000000000000000 0.0
0.0000000000000000 0.0000000000000000 0.0
0.0000000000000000 0.0000000000000000 0.0
0.0000000000000000 0.0000000000000000 0.0
0.0000000000000000 0.0000000000000000 0.0
0.0000000000000000 0.0000000000000000 0.0
0.0000000000000000 0.0000000000000000 0.0
0.0000000000000000 0.0000000000000000 0.0
0.0000000000000000 0.0000000000000000 0.0
0.0000000000000000 0.0000000000000000 0.0
0.0000000000000000 0.0000000000000000 0.0
0.0000000000000000 0.0000000000000000 0.0
0.0000000000000000 0.0000000000000000 0.0
0.0000000000000000 0.0000000000000000 0.0
0.0000000000000000 0.0000000000000000 0.0
0.0000000000000000 0.0000000000000000 0.0
0.0000000000000000 0.0000000000000000 0.0
0.0000000000000000 0.0000000000000000 0.0
0.0000000000000000 0.0000000000000000 0.0
0.0000000000000000 0.0000000000000000 0.0
0.0000000000000000 0.0000000000000000 0.0
0.0000000000000000 0.0000000000000000 0.0
0.0000000000000000 0.0000000000000000 0.0
0.0000000000000000 0.0000000000000000 0.0
0.0000000000000000 0.0000000000000000 0.0
0.0000000000000000 0.0000000000000000 0.0
0.0000000000000000 0.0000000000000000 0.0
0.0000000000000000 0.0000000000000000 0.0
0.0000000000000000 0.0000000000000000 0.0
1.0000000000000000 0.0000000000000000 0.0
1.0000000000000000 0.0000000000000000 0.0
1.0000000000000000 0.0000000000000000 0.0
1.0000000000000000 0.0000000000000000 0.0
1.0000000000000000 0.0000000000000000 0.0
1.0000000000000000 0.0000000000000000 0.0
1.0000000000000000 0.0000000000000000 0.0
1.0000000000000000 0.0000000000000000 0.0
1.0000000000000000 0.0000000000000000 0.0
0.0000000000000000 0.0000000000000000 0.0
0.0000000000000000 0.0000000000000000 0.0
0.0000000000000000 0.0000000000000000 0.0
0.0000000000000000 0.0000000000000000 0.0
0.0000000000000000 0.0000000000000000 0.0
0.0000000000000000 0.0000000000000000 0.0
0.0000000000000000 0.0000000000000000 0.0
0.0000000000000000 0.0000000000000000 0.0
0.0000000000000000 0.0000000000000000 0.0
0.0000000000000000 0.0000000000000000 0.0
0.0000000000000000 0.0000000000000000 0.0
0.0000000000000000 0.0000000000000000 0.0
0.0000000000000000 0.0000000000000000 0.0
0.0000000000000000 0.0000000000000000 0.0
0.0000000000000000 0.0000000000000000 0.0
0.0000000000000000 0.0000000000000000 0.0
0.0000000000000000 0.0000000000000000 0.0
0.0000000000000000 0.0000000000000000 0.0
0.0000000000000000 0.0000000000000000 0.0
0.0000000000000000 0.0000000000000000 0.0
0.0000000000000000 0.0000000000000000 0.0
0.0000000000000000 0.0000000000000000 0.0
0.0000000000000000 0.0000000000000000 0.0
0.0000000000000000 0.0000000000000000 0.0
0.0000000000000000 0.0000000000000000 0.0
0.0000000000000000 0.0000000000000000 0.0
0.0000000000000000 0.0000000000000000 0.0
0.0000000000000000 0.0000000000000000 0.0
0.0000000000000000 0.0000000000000000 0.0
0.0000000000000000 0.0000000000000000 0.0
0.0000000000000000 0.0000000000000000 0.0
0.0000000000000000 0.0000000000000000 0.0
0.0000000000000000 0.0000000000000000 0.0
0.0000000000000000 0.0000000000000000 0.0
0.0000000000000000 0.0000000000000000 0.0
0.0000000000000000 0.0000000000000000 0.0
0.0000000000000000 0.0000000000000000 0.0
0.0000000000000000 0.0000000000000000 0.0
0.0000000000000000 0.0000000000000000 0.0
0.0000000000000000 0.0000000000000000 0.0
0.0000000000000000 0.0000000000000000 0.0
0.0000000000000000 0.0000000000000000 0.0
0.0000000000000000 0.0000000000000000 0.0
0.0000000000000000 0.0000000000000000 0.0
0.0000000000000000 0.0000000000000000 0.0
0.0000000000000000 0.0000000000000000 0.0
0.0000000000000000 0.0000000000000000 0.0
0.0000000000000000 0.0000000000000000 0.0
0.0000000000000000 0.0000000000000000 0.0
1.0705077512833068 -0.4155481031822386 0.0
0.9812027892860478 -0.1444154384069642 0.0
0.9790646988582866 -0.0259879116998312 0.0
1.0755394751561687 0.3224108470430263 0.0
1.1700335856514110 0.0029607246378231 0.0
1.2063231436119641 -0.0409694915527949 0.0
1.2398602926214335 -0.0881725882300549 0.0
1.1524479296845391 -0.0374540273180187 0.0
1.2405222271618668 -0.0633339851247815 0.0
1.3389046778074059 -0.0696758937711768 0.0
1.3934114655741412 -0.0138055642896259 0.0
1.3890768168049179 0.0097900741296429 0.0
1.4584272485789922 0.0636541320032333 0.0
1.3983893899782520 -0.0905218290437630 0.0
1.1928925117928058 -0.0074692461327711 0.0
1.2227965876882516 -0.0744543641930735 0.0
1.1604895862881457 0.1133651909535712 0.0
1.4578582624837200 0.0537344727186249 0.0
1.4460094369370815 0.0197111839320212 0.0
1.2057578832259446 -0.0561436052032363 0.0
1.2546933934420375 -0.0583082248320602 0.0
1.1831355609773828 -0.0063224232247311 0.0
1.4882203639330602 -0.0392776214419528 0.0
1.5262037201782988 0.0262738085329778 0.0
1.1096633396377817 0.0626281144687988 0.0
1.2156156884664024 -0.1340523336559602 0.0
1.4856396900075943 0.0280632081580043 0.0
1.4896605850758353 -0.0214219285077892 0.0
1.5180177256735827 0.0307859069635611 0.0
1.5407764850247048 0.0195870413879399 0.0
1.3286023947107690 -0.1335419871645298 0.0
1.4930225547900773 -0.0124883151761399 0.0
1.6266743328504130 0.0255914784515064 0.0
1.2718863041092996 0.0897779127055330 0.0
1.1936209930213655 -0.0231563508381789 0.0
1.3572506382729048 -0.0294564497912574 0.0
1.2546908981716032 -0.1263361199160647 0.0
1.4046380721771476 0.0847899147917094 0.0
1.5123275561310152 -0.0046099056811514 0.0
1.6163662357822079 -0.0908196687568470 0.0
1.6703993698603115 -0.0482132405835804 0.0
1.2309139852738458 -0.0434279832295383 0.0
1.5771166437303143 -0.0175812834391960 0.0
1.1389754215537233 0.0364325071504207 0.0
1.0868922759622928 -0.0294886891170551 0.0
1.3331913342284853 -0.0880287105563864 0.0
1.1243585547149693 -0.0611909269557289 0.0
1.0626102890696754 -0.0490245681229587 0.0
1.1935364486858306 -0.0294908977475973 0.0
1.1683688888298198 -0.0188899291626093 0.0
1.7482043268801171 -0.1215453935208402 0.0
1.3272690250477837 0.0056223073175018 0.0
1.1071216671451332 -0.0657693191018333 0.0
1.2190034324811752 -0.0578031155952517 0.0
1.3643287116138656 0.0308607435652327 0.0
1.3179673193049610 0.0041964313948274 0.0
1.2753861212131956 -0.0187126524513975 0.0
1.0540399328005916 0.0004520799779699 0.0
1.2090762520604725 -0.0434840817405988 0.0
1.2723496093117694 0.0105019238771599 0.0
1.4118493689037617 -0.0750956365143608 0.0
1.2491977926903539 -0.0221686082010685 0.0
1.2400745822082022 -0.1556226294592700 0.0
1.1584665283601920 0.2432984404583022 0.0
1.0593470423687279 0.1377617522095799 0.0
1.2211071248630161 -0.0414048693460895 0.0
1.1608579431036667 0.0402278940853270 0.0
1.3974986077129075 0.0610219829246413 0.0
1.2489976225219415 0.0143557568426412 0.0
1.7182474460400077 0.0555075071403639 0.0
1.4383726813796234 0.0266589305420293 0.0
1.1908209966778560 -0.0246387070585716 0.0
1.0832516477508933 -0.0786008154427180 0.0
1.2018577492381681 -0.0478989412967272 0.0
1.5637725453609657 -0.1291312758283302 0.0
1.3069691010520850 0.0508935704433413 0.0
1.4178371985957463 0.0736264791745430 0.0
1.1916667221297557 -0.0233706193473035 0.0
1.2556480286020872 -0.0298435838843221 0.0
1.4813753032035728 -0.0341834858839828 0.0
1.5567205911160973 0.0401454697141370 0.0
1.1780356317969660 -0.0005762155698770 0.0
1.2266557269431229 -0.0537230394386529 0.0
1.1730249712392100 -0.0568558224769477 0.0
1.1212672238115244 -0.1084613410083904 0.0
1.2771167887476016 -0.0911316082726217 0.0
1.2694555543950625 -0.1232438286677572 0.0
1.5502468411522319 0.0066962955342739 0.0
0.8596146284752419 0.0198059292516365 0.0
1.0388345380890844 0.0646517903228025 0.0
1.6477537975550265 0.0219404396841810 0.0
1.2755781384505633 0.0179821125408920 0.0
1.1064691711180277 -0.0393573254944998 0.0
1.1815792123560118 -0.0420165984060802 0.0
1.2550696229494192 0.0167255462970342 0.0
1.1774148921223313 -0.2195222223655809 0.0
1.0431235500085645 0.0309380893097754 0.0
1.5318455047429287 0.0116161408354803 0.0
1.6075022770218341 -0.0121122463889548 0.0
1.0727561129522347 0.0058313168472356 0.0
1.5519339597359147 0.0507547557710057 0.0
1.0731977664386307 -0.0873251431780397 0.0
1.2476497528226353 0.0193827670093247 0.0
1.2027290466803688 -0.0254393444166383 0.0
1.2735736903360135 0.0243756755085510 0.0
1.6113039537172957 -0.0290322816791678 0.0
1.2770713842808925 -0.1442363640253309 0.0
1.4115527558116439 0.0323409277882960 0.0
1.4365812693718669 0.0745959629024589 0.0
1.3374367756941450 -0.0626283953089753 0.0
0.7702490817201090 -0.0821757088313677 0.0
1.2282242757671193 -0.0924126438603950 0.0
0.7538113370644567 -0.0077952885467683 0.0
1.2191451056823805 -0.0647482128150378 0.0
1.0380400375424177 0.0383960315317443 0.0
1.1363653273981986 0.0023267156644839 0.0
1.2026036401727507 0.1885525132467001 0.0
1.1389717003227351 0.0509342595412926 0.0
0.9460805474930969 0.0194342035420511 0.0
1.1951411574462472 -0.0476197569753283 0.0
0.7829035599390292 0.0043465800559953 0.0
1.5914496787095593 0.0083554753700361 0.0
1.0337809712218629 0.0725647774057576 0.0
1.2328239990852392 -0.0708885637882132 0.0
1.1232408133771883 0.0042141471879970 0.0
1.3556794707863014 -0.1023842022189347 0.0
0.7392239977768460 -0.0446908013644861 0.0
1.1454857472044029 -0.0636049754030335 0.0
1.1986634865973183 -0.0438618370518730 0.0
1.2114212669395534 -0.0770865470565412 0.0
1.5644685927356492 -0.0069896560742122 0.0
1.5476183775805454 0.0392448511160281 0.0
1.0845472585182649 0.0068082914387253 0.0
1.2456499052318999 -0.0323020384424705 0.0
0.8604898465197521 0.0443188329964370 0.0
0.6934613968692641 0.0007833615509662 0.0
0.6397561844160629 0.0308792699666746 0.0
1.2093174388449706 -0.0521714385480921 0.0
0.7597064362710171 0.1060498377780969 0.0
0.7969368271296930 -0.0057905775055113 0.0
1.3934317774989506 0.0029547438219818 0.0
1.2617770685565262 -0.0505848924397667 0.0
1.2600907453765331 -0.0280028207653565 0.0
1.4522683261219560 0.0411425452799656 0.0
1.2050739256287584 -0.0360558201378777 0.0
1.5351604066138054 0.0184519587312953 0.0
1.2152626337197696 0.0659907449987571 0.0
1.1228058268175005 -0.1669378282590702 0.0
1.1176687795680786 0.1011927004981169 0.0
1.0944904754125528 0.1839528693817656 0.0
1.0666945889953297 -0.0430388365199297 0.0
1.1750122982341158 0.0280366764681375 0.0
0.9428053815943489 0.0226593119299479 0.0
0.7479927306853479 0.0771611312240073 0.0
0.9957031552671113 -0.0100619124353668 0.0
1.1876173019128300 -0.0179406173516899 0.0
0.7999123548837728 0.0743989308418371 0.0
1.1943298379971474 0.0113200269166113 0.0
1.2027131363030070 -0.0349430692638280 0.0
1.0426403115162088 -0.0035348917182577 0.0
1.2638152322629470 0.0251525998865738 0.0
1.4038401107017646 0.0355544214961141 0.0
1.1578698812397930 -0.0642684422868658 0.0
1.2338565691100143 -0.0675486284099463 0.0
0.7155723787777615 0.0891317449068493 0.0
0.7145018859930787 0.0669155770350788 0.0
0.8647984335610445 -0.0058161758138395 0.0
1.3493632707525689 -0.0779879872878661 0.0
1.2158010849671348 -0.0450598533956344 0.0
0.7413816503327583 0.1007587804020258 0.0
0.8188065989611804 -0.0255710768743842 0.0
1.0966066528847020 0.0105088618780985 0.0
1.2901194106891098 -0.0630847549622199 0.0
1.0215320989439824 0.0055465739318752 0.0
1.1518897451110077 0.0100909378248757 0.0
1.1983175854863790 -0.0418675485114691 0.0
0.9623044262204526 0.0054516574646293 0.0
0.9035576598039972 0.0546312693296565 0.0
1.3060804495187357 -0.0017141033116190 0.0
0.8379711956451223 -0.0215691963414518 0.0
1.4751454759531777 -0.0180611284921662 0.0
0.8086323506114663 0.0200387481975232 0.0
0.8073164769294732 -0.0187961587367266 0.0
1.1925941390861288 -0.0401116158407158 0.0
1.1843988776566419 -0.0127912949202906 0.0
1.0155689813131425 -0.0001776745545565 0.0
0.7737021133907558 0.1197476531090825 0.0
0.8820539015050186 0.0019536649070589 0.0
1.1912339478643648 -0.0142440567121420 0.0
0.9122873951624481 0.0366482497315806 0.0
1.1761522043469410 0.0798258241799817 0.0
1.2205910989444921 -0.0768823023678420 0.0
0.7462455550367302 0.0196218095555452 0.0
1.3750699475045258 -0.0122657324108337 0.0
0.9451046607688171 -0.0073963637273497 0.0
1.3696330401644550 -0.0171287837497161 0.0
0.6201319431745206 -0.0386514653185339 0.0
1.2504210541569989 -0.1055893272503790 0.0
1.4210195089992754 -0.0139653442273437 0.0
0.7545613548561211 0.0822752765867690 0.0
0.8166277994222606 -0.0252789459976014 0.0
1.4543245466071719 0.0632415655773911 0.0
0.9950080029871933 0.0383017667997916 0.0
1.4366277296635119 0.0394752599265980 0.0
1.1740493476892084 -0.0637411340336516 0.0
0.8519555724574226 -0.0464262663107551 0.0
0.8057640713166655 -0.0082874446825785 0.0
0.9953894436487210 -0.0189480772001668 0.0
0.9874821057696287 0.0262498359741823 0.0
1.4652658542580526 0.0057194592566262 0.0
0.6435600784141260 0.0331080467176526 0.0
0.8880867836440308 -0.0511645050967230 0.0
0.8456934509999088 0.0500617357724896 0.0
1.3845018548727841 0.0463345581121482 0.0
0.8275765252824417 -0.1787952423307800 0.0
0.8356266664879652 -0.0173080659499075 0.0
0.6160619450300370 -0.0364893291902137 0.0
1.2065592231909357 -0.0298567560459167 0.0
0.8157058140951915 0.1331751668143039 0.0
0.8850384652270034 0.0434179770670965 0.0
1.2255412202147837 -0.1175411208797531 0.0
0.8233067147379796 -0.0077211050239455 0.0
0.9236441081494589 -0.0061635263965497 0.0
1.1639193133520656 -0.0552537327702830 0.0
0.8298323746312952 -0.0149009429029107 0.0
0.7877055460825363 -0.0400744981704032 0.0
1.3599939412469022 0.0355609580574142 0.0
0.8543511878990517 -0.0222371005087165 0.0
1.0299247874692450 -0.0337902817148286 0.0
0.8396660904699430 0.0535608220398809 0.0
1.2550783989008640 -0.0722616913262320 0.0
0.7177151671852454 -0.0118039287558636 0.0
0.5742138090913216 0.0139142541952323 0.0
1.1069254696335629 -0.0127604745734002 0.0
0.8863611516373668 0.0712092893831251 0.0
0.7967570144152062 -0.0160875665071258 0.0
0.9564846912735951 0.0431419257003608 0.0
1.1695951772422670 -0.0109406971938078 0.0
0.7573540506118265 -0.0160943360905954 0.0
1.1623091716796439 0.1302696297664956 0.0
1.3749713294467860 -0.0012989268996066 0.0
0.7281880232858271 -0.0057916261020963 0.0
1.1002036913291666 0.0091537194214037 0.0
1.1624616472400526 -0.0255949522239209 0.0
1.1627627662765219 -0.0405712923438632 0.0
1.2152783349934515 -0.0692057223654539 0.0
0.6140560348161419 0.1565878661906767 0.0
1.6582756359189106 0.0184000402785990 0.0
1.1681965837450761 0.0167504387374849 0.0
0.6541958647850526 0.0571168805997087 0.0
1.2302247354274283 -0.0815645628725938 0.0
1.3437209771349015 -0.0924443841221309 0.0
0.7308431042858357 -0.0002037904914111 0.0
1.0231349386078070 0.0064288892652431 0.0
0.6785034429323109 -0.0385693764399024 0.0
0.9481565635999114 -0.0750573161238198 0.0
0.7999487355879131 -0.0613456004954966 0.0
0.5383980866081742 0.1702557260893847 0.0
1.1707044878425437 0.1257131990260051 0.0
1.5608386286426941 0.0202835565565678 0.0
0.6875215766854100 0.1717761440711040 0.0
1.4757767782449849 -0.0311633728938798 0.0
1.7116393424563834 0.0569928948708427 0.0
0.6821225841890287 0.1461929176393384 0.0
1.4158811430288554 0.0506336211314992 0.0
1.3372214857021321 -0.1256485492062534 0.0
0.9466766214709523 0.2295741694770664 0.0
1.2997680745897706 -0.0189799048327506 0.0
1.3191802665258576 0.0156292076830696 0.0
0.7896507463577426 0.0874602984808480 0.0
1.3135942289793412 -0.0705700363570290 0.0
0.7946115080733243 -0.0544133631673697 0.0
0.7392154084802239 0.1405784354360915 0.0
0.5536000847474352 0.0382715506525759 0.0
1.2397213921004935 -0.0302519129849359 0.0
0.9120134062825883 -0.2522166364657958 0.0
1.3719498364197924 0.0765490533088772 0.0
1.2793610978264927 -0.0566888181702440 0.0
0.6350641881848479 -0.0139081227452976 0.0
0.6598799216928114 0.0484414177193992 0.0
0.7349019596073783 0.0139921569378474 0.0
1.0905613329915025 0.0337960439249122 0.0
1.1552601456919520 0.1819797615305242 0.0
0.6535252335996118 -0.0433724097814696 0.0
1.1942527578917381 -0.0311134526800896 0.0
0.6331239124054970 0.0506643586530221 0.0
1.5460187572197883 0.0298683496506727 0.0
0.5705020926849100 0.1989382598893670 0.0
0.8099662602994002 -0.1115820116562859 0.0
1.4705627397350762 -0.0462513772010651 0.0
1.2686768712218877 0.0234005777751408 0.0
1.3240316271156856 -0.0931844731170691 0.0
0.7245796726968474 0.0044172337721158 0.0
0.8761629909620875 -0.0339990617868643 0.0
1.3693344219262478 -0.0829105623760945 0.0
1.1952053736413712 -0.0352601313056414 0.0
1.0155102398219815 0.0629767583946351 0.0
1.3878722895256126 0.0338989865642831 0.0
1.2091226068908802 -0.0478995853985631 0.0
1.1536931323339494 0.0765056627343413 0.0
1.0441741390733186 -0.0002940087907970 0.0
0.7529389286176771 -0.0243113065938234 0.0
0.6887209557499034 -0.0413636837352457 0.0
1.2515701998441622 -0.0589012747540018 0.0
1.2109204745499684 -0.0276300920838789 0.0
1.0807487147038624 0.0948360820870528 0.0
0.4804965124170945 0.0327725408548542 0.0
1.3812041502500347 -0.1099274572719493 0.0
0.4267295080845336 0.0993650631228624 0.0
0.7288056592686225 0.1052240650838250 0.0
1.1947772521076960 -0.0398284410012024 0.0
0.5808254235775890 -0.1268872615865513 0.0
1.1430999856570008 -0.2646998130615809 0.0
1.2269005848244010 -0.0448638953555759 0.0
1.5558432763878969 -0.0112166190707035 0.0
0.7336341320685384 0.1003979804287579 0.0
1.5130276377220333 -0.0533243894330216 0.0
0.9136099614095061 -0.0274330103400734 0.0
1.2325334486835298 -0.0440160205147549 0.0
0.9178297161979062 -0.0257406712214573 0.0
0.6241033444405759 0.1497468904216351 0.0
0.9255152857955481 -0.0442989005993547 0.0
1.0543965986175265 -0.0523748147272399 0.0