# vtk DataFile Version 3.0
LucasCarvalhoTCC Results
ASCII

DATASET POLYDATA
FIELD FieldData 1
TIME 1 1 double
3.3000000000000003

POINTS 600 float
0.0 2.0 0.0
0.25 1.989125 0.0
0.5 1.958 0.0
0.75 1.908875 0.0
1.0 1.844 0.0
1.25 1.765625 0.0
1.5 1.676 0.0
1.75 1.577375 0.0
2.0 1.472 0.0
2.25 1.362125 0.0
2.5 1.25 0.0
2.75 1.137875 0.0
3.0 1.028 0.0
3.25 0.922625 0.0
3.5 0.8240000000000001 0.0
3.75 0.734375 0.0
4.0 0.6560000000000001 0.0
4.25 0.5911249999999999 0.0
4.5 0.542 0.0
4.75 0.510875 0.0
5.0 0.5 0.0
5.25 0.5036250000000004 0.0
5.5 0.5140000000000002 0.0
5.75 0.5303750000000003 0.0
6.0 0.5519999999999996 0.0
6.25 0.578125 0.0
6.5 0.6080000000000005 0.0
6.75 0.6408749999999999 0.0
7.0 0.6760000000000002 0.0
7.25 0.7126249999999992 0.0
7.5 0.75 0.0
7.75 0.7873750000000004 0.0
8.0 0.8239999999999994 0.0
8.25 0.8591250000000001 0.0
8.5 0.8919999999999999 0.0
8.75 0.921875 0.0
9.0 0.9479999999999991 0.0
9.25 0.9696250000000011 0.0
9.5 0.9859999999999984 0.0
9.75 0.9963750000000013 0.0
10.0 1.0 0.0
0.0 0.0 0.0
10.0 0.0 0.0
0.124999999999674 1.994562500000014 0.0
0.3749999999999947 1.973562500000001 0.0
0.6249999999999918 1.933437500000002 0.0
0.874999999999979 1.876437500000006 0.0
1.124999999999963 1.804812500000012 0.0
1.374999999999944 1.72081250000002 0.0
1.624999999999985 1.626687500000006 0.0
1.874999999999953 1.52468750000002 0.0
2.124999999999936 1.417062500000028 0.0
2.374999999999952 1.306062500000022 0.0
2.624999999999919 1.193937500000036 0.0
2.87499999999992 1.082937500000035 0.0
3.124999999999946 0.9753125000000229 0.0
3.374999999999948 0.8733125000000204 0.0
3.624999999999972 0.77918750000001 0.0
3.874999999999963 0.6951875000000118 0.0
4.124999999999968 0.6235625000000082 0.0
4.394409538298571 0.5627485257243309 0.0
4.583333333333322 0.5316250000000015 0.0
4.666666666666668 0.5212499999999999 0.0
4.833333333333334 0.50725 0.0
4.916666666666667 0.503625 0.0
5.083333333333334 0.5012083333333335 0.0
5.166666666666666 0.502416666666667 0.0
5.333333333333334 0.5070833333333337 0.0
5.416666666666667 0.510541666666667 0.0
5.583333333333334 0.5194583333333336 0.0
5.666666666666666 0.5249166666666669 0.0
5.833333333333338 0.5375833333333339 0.0
5.916666666666661 0.544791666666666 0.0
6.105781577147724 0.5630541748119369 0.0
6.375 0.5930625000000003 0.0
6.624999999999988 0.6244374999999988 0.0
6.874999999999994 0.6584374999999991 0.0
7.125 0.6943124999999997 0.0
7.375 0.7313124999999996 0.0
7.624999999999994 0.7686874999999992 0.0
7.875 0.8056874999999999 0.0
8.125 0.8415624999999998 0.0
8.374999999999991 0.8755624999999989 0.0
8.624999999999995 0.9069374999999993 0.0
8.874999999999995 0.9349374999999991 0.0
9.125 0.9588125000000001 0.0
9.375 0.9778124999999998 0.0
9.625 0.9911874999999999 0.0
9.875 0.9981875000000007 0.0
0.0 1.799999999999167 0.0
0.0 1.6 0.0
0.0 1.400000000001387 0.0
0.0 1.200000000002774 0.0
0.0 1.000000000004117 0.0
0.0 0.8000000000033287 0.0
0.0 0.6000000000024965 0.0
0.0 0.4000000000016644 0.0
0.0 0.200000000000832 0.0
0.199999999999856 0.0 0.0
0.3999999999996677 0.0 0.0
0.5999999999994683 0.0 0.0
0.7999999999993286 0.0 0.0
0.9999999999991888 0.0 0.0
1.199999999999033 0.0 0.0
1.399999999998576 0.0 0.0
1.599999999997992 0.0 0.0
1.799999999997408 0.0 0.0
1.999999999996825 0.0 0.0
2.199999999996241 0.0 0.0
2.399999999995657 0.0 0.0
2.599999999995073 0.0 0.0
2.79999999999449 0.0 0.0
2.999999999993906 0.0 0.0
3.199999999993322 0.0 0.0
3.399999999992738 0.0 0.0
3.599999999992154 0.0 0.0
3.799999999991571 0.0 0.0
3.999999999991022 0.0 0.0
4.199999999991187 0.0 0.0
4.399999999991491 0.0 0.0
4.599999999991795 0.0 0.0
4.799999999992099 0.0 0.0
4.999999999992403 0.0 0.0
5.199999999992706 0.0 0.0
5.39999999999301 0.0 0.0
5.599999999993313 0.0 0.0
5.799999999993618 0.0 0.0
5.999999999993922 0.0 0.0
6.199999999994227 0.0 0.0
6.39999999999453 0.0 0.0
6.599999999994833 0.0 0.0
6.799999999995138 0.0 0.0
6.999999999995442 0.0 0.0
7.199999999995747 0.0 0.0
7.39999999999605 0.0 0.0
7.599999999996353 0.0 0.0
7.799999999996658 0.0 0.0
7.999999999996962 0.0 0.0
8.199999999997265 0.0 0.0
8.399999999997569 0.0 0.0
8.599999999997873 0.0 0.0
8.799999999998176 0.0 0.0
8.99999999999848 0.0 0.0
9.199999999998786 0.0 0.0
9.399999999999089 0.0 0.0
9.599999999999392 0.0 0.0
9.799999999999697 0.0 0.0
10.0 0.1999999999995579 0.0
10.0 0.3999999999989749 0.0
10.0 0.5999999999989468 0.0
10.0 0.7999999999994734 0.0
0.913963423524136 0.9126937851647636 0.0
1.629657910441747 0.8286436141773268 0.0
2.300136613917738 0.6369890708869279 0.0
0.5989085226155619 1.38125543468559 0.0
1.274155622640533 1.242773398230304 0.0
2.860215383945273 0.5217401976756945 0.0
9.469653920408135 0.4910067017840992 0.0
8.984679546317787 0.4696119782494839 0.0
8.499397693277212 0.4463630640980716 0.0
3.270918412356206 0.4522692359356972 0.0
1.223039611612243 0.5146439900227544 0.0
2.024812732135938 1.00818256045515 0.0
0.5365376864627701 0.5434316309416508 0.0
8.114834335444021 0.4602948767329583 0.0
7.742261962994204 0.4117304941858466 0.0
0.9443382341364558 1.456061359265878 0.0
1.665275621558886 1.201744468407863 0.0
1.89566112584099 0.4397284596316843 0.0
3.691409759982064 0.3560936332572802 0.0
7.368457390036411 0.3792926046732459 0.0
0.5071184951703254 0.9340893429149442 0.0
0.3822273842356539 1.647625881691675 0.0
5.916285335387544 0.2564903116750689 0.0
5.628860531758535 0.2582323053999509 0.0
5.380471017960128 0.2502349014663197 0.0
5.139244585769944 0.2549145445969738 0.0
2.686085237972266 0.8031095648160084 0.0
4.507599040026292 0.263176944655695 0.0
6.983755234374982 0.3380000000001097 0.0
9.720925955181613 0.6635813325201156 0.0
1.288006195687152 0.8759679848503046 0.0
9.20556379558699 0.6923669083350594 0.0
2.319913492084225 0.9512500928262699 0.0
8.73203612228155 0.6151508464420534 0.0
4.868679481352366 0.2526598053940744 0.0
4.10358044398202 0.3012437332986487 0.0
6.602422946953217 0.3126221952225479 0.0
2.534693527909069 0.3583319619586092 0.0
6.193332317503376 0.2894654215336858 0.0
0.8804088217382579 0.3735513844182569 0.0
0.7663303172393539 1.679065267574722 0.0
3.081211528283084 0.6968015573146217 0.0
1.241762689885858 1.521465072418641 0.0
1.573472750763779 0.3374689934575129 0.0
1.475107933015155 1.403918544935278 0.0
0.8212739503602162 1.195790902469637 0.0
4.681049549092561 0.3558177014380842 0.0
9.439519900118443 0.7366884444350511 0.0
2.201393787062887 0.3261463175998884 0.0
2.015369189818184 0.7109460688851087 0.0
8.32727069655695 0.6360373328685593 0.0
8.961488632119996 0.7119124617705204 0.0
9.22773266034565 0.3109430611770705 0.0
0.3000513553073295 1.178778127105867 0.0
1.91985473842554 1.233084801189704 0.0
8.749827252515535 0.3049638092131281 0.0
3.50551132590258 0.5576614504134195 0.0
3.040500962406976 0.290446660105673 0.0
9.72097519930939 0.3037986529514364 0.0
0.3073166349239687 0.3249300260882615 0.0
0.2948185331392187 0.7229775107826154 0.0
1.46029425821417 1.06552904833304 0.0
0.8085718129253527 0.673531272847494 0.0
7.913326191751847 0.5738936378911789 0.0
8.295349499871781 0.2556682497524391 0.0
4.31359646688283 0.3665214152100782 0.0
7.542842082022704 0.5249918217576657 0.0
1.058357552227335 1.116692590939024 0.0
2.214297272750292 1.159898327391242 0.0
2.901187336648686 0.8282146771898153 0.0
3.933498145061447 0.4325241689837319 0.0
7.956006969037984 0.2667411694088205 0.0
7.172393179434975 0.4835114022190097 0.0
1.440243631802057 0.6689433452646625 0.0
3.458541882144431 0.2581755850286561 0.0
5.791617360065465 0.3978542524532168 0.0
5.981529865241493 0.3900667299390458 0.0
1.083462543944253 0.7203994120564634 0.0
1.78518471978951 1.008552691762234 0.0
2.77360122246243 0.2689852172070111 0.0
2.565134389978369 0.9928826788184764 0.0
2.543046005790158 0.6034091352176242 0.0
3.293038780485421 0.6769811703257343 0.0
6.790787388653942 0.4353933509634578 0.0
1.140204059461831 0.2538227257007896 0.0
0.6242104065654487 0.2738473600765566 0.0
6.393430278703709 0.3766405270445946 0.0
8.533059390324546 0.6950580701614406 0.0
0.9961263693263854 1.612128843772703 0.0
1.697598586607002 0.5781950992180334 0.0
8.087930458724863 0.6517815437732153 0.0
0.2748906317360928 1.770749713716887 0.0
0.5785110002099415 1.757022387413085 0.0
5.550004842562332 0.3852675728674634 0.0
4.948161884155141 0.3480305424737933 0.0
1.741244734175577 1.381979611033466 0.0
5.312408927381063 0.3621256994047111 0.0
0.2492139438157334 1.453132031680879 0.0
7.597720022451821 0.2370268512906596 0.0
9.471021754366422 0.2472916581956264 0.0
7.714083843672875 0.600212897672991 0.0
4.520815862079482 0.3946753115680038 0.0
2.47356661122767 0.8007389356831706 0.0
7.325494311403363 0.528948935030723 0.0
7.147005275585743 0.2709670165999667 0.0
3.758046446289313 0.5474783841545341 0.0
3.893717059615281 0.1664960777568404 0.0
2.152835534199412 0.8614028741175742 0.0
8.995993312441625 0.1933410497113667 0.0
1.077676137392001 1.368204555688504 0.0
0.2429906229817933 0.9816066505657851 0.0
0.6261765586985547 1.180540007244081 0.0
9.81151801018651 0.816223424030724 0.0
0.6725442903064565 0.8425384371773644 0.0
1.74584086891446 0.2617492458514414 0.0
0.7667820686164357 1.440842670056678 0.0
8.539133693395232 0.1910926418035274 0.0
5.129145653242096 0.3632579123815574 0.0
6.816538849831732 0.2013284992826486 0.0
2.108503954619862 0.5359795950847274 0.0
6.933669557130528 0.4980836483776163 0.0
3.071406705674529 0.4919421055852253 0.0
2.001240035874449 0.2292738462614773 0.0
4.782473531509697 0.4061213127162872 0.0
0.5734126310178208 1.536352720889636 0.0
9.796714529589472 0.4898048068674991 0.0
5.678359041645315 0.373719883316694 0.0
5.427661572827738 0.3646059266294788 0.0
2.075214597532947 1.226969224366912 0.0
3.251521478555126 0.2637671977660283 0.0
2.722180837291864 0.9710783334409533 0.0
9.333262390342384 0.8479609887828539 0.0
1.367251332770493 0.2041553944563636 0.0
1.870721433742522 0.7905989208842599 0.0
1.387906762913351 1.555741687747287 0.0
9.559918612869 0.8444052974080497 0.0
9.286795039366257 0.4698254290795815 0.0
[...]
POINT_DATA 600

VECTORS Velocity float
0.0000000000000000 0.0000000000000000 0.0
0.0000000000000000 0.0000000000000000 0.0
0.0000000000000000 0.0000000000000000 0.0
0.0000000000000000 0.0000000000000000 0.0
0.0000000000000000 0.0000000000000000 0.0
0.0000000000000000 0.0000000000000000 0.0
0.0000000000000000 0.0000000000000000 0.0
0.0000000000000000 0.0000000000000000 0.0
0.0000000000000000 0.0000000000000000 0.0
0.0000000000000000 0.0000000000000000 0.0
0.0000000000000000 0.0000000000000000 0.0
0.0000000000000000 0.0000000000000000 0.0
0.0000000000000000 0.0000000000000000 0.0
0.0000000000000000 0.0000000000000000 0.0
0.0000000000000000 0.0000000000000000 0.0
0.0000000000000000 0.0000000000000000 0.0
0.0000000000000000 0.0000000000000000 0.0
0.0000000000000000 0.0000000000000000 0.0
0.0000000000000000 0.0000000000000000 0.0
0.0000000000000000 0.0000000000000000 0.0
0.0000000000000000 0.0000000000000000 0.0
0.0000000000000000 0.0000000000000000 0.0
0.0000000000000000 0.0000000000000000 0.0
0.0000000000000000 0.0000000000000000 0.0
0.0000000000000000 0.0000000000000000 0.0
0.0000000000000000 0.0000000000000000 0.0
0.0000000000000000 0.0000000000000000 0.0
0.0000000000000000 0.0000000000000000 0.0
0.0000000000000000 0.0000000000000000 0.0
0.0000000000000000 0.0000000000000000 0.0
0.0000000000000000 0.0000000000000000 0.0
0.0000000000000000 0.0000000000000000 0.0
0.0000000000000000 0.0000000000000000 0.0
0.0000000000000000 0.0000000000000000 0.0
0.0000000000000000 0.0000000000000000 0.0
0.0000000000000000 0.0000000000000000 0.0
0.0000000000000000 0.0000000000000000 0.0
0.0000000000000000 0.0000000000000000 0.0
0.0000000000000000 0.0000000000000000 0.0
0.0000000000000000 0.0000000000000000 0.0
0.0000000000000000 0.0000000000000000 0.0
0.0000000000000000 0.0000000000000000 0.0
0.8242454976822933 -0.1315995863147582 0.0
0.0000000000000000 0.0000000000000000 0.0
0.0000000000000000 0.0000000000000000 0.0
0.0000000000000000 0.0000000000000000 0.0
0.0000000000000000 0.0000000000000000 0.0
0.0000000000000000 0.0000000000000000 0.0
0.0000000000000000 0.0000000000000000 0.0
0.0000000000000000 0.0000000000000000 0.0
0.0000000000000000 0.0000000000000000 0.0
0.0000000000000000 0.0000000000000000 0.0
0.0000000000000000 0.0000000000000000 0.0
0.0000000000000000 0.0000000000000000 0.0
0.0000000000000000 0.0000000000000000 0.0
0.0000000000000000 0.0000000000000000 0.0
0.0000000000000000 0.0000000000000000 0.0
0.0000000000000000 0.0000000000000000 0.0
0.0000000000000000 0.0000000000000000 0.0
0.0000000000000000 0.0000000000000000 0.0
0.0000000000000000 0.0000000000000000 0.0
0.0000000000000000 0.0000000000000000 0.0
0.0000000000000000 0.0000000000000000 0.0
0.0000000000000000 0.0000000000000000 0.0
0.0000000000000000 0.0000000000000000 0.0
0.0000000000000000 0.0000000000000000 0.0
0.0000000000000000 0.0000000000000000 0.0
0.0000000000000000 0.0000000000000000 0.0
0.0000000000000000 0.0000000000000000 0.0
0.0000000000000000 0.0000000000000000 0.0
0.0000000000000000 0.0000000000000000 0.0
0.0000000000000000 0.0000000000000000 0.0
0.0000000000000000 0.0000000000000000 0.0
0.0000000000000000 0.0000000000000000 0.0
0.0000000000000000 0.0000000000000000 0.0
0.0000000000000000 0.0000000000000000 0.0
0.0000000000000000 0.0000000000000000 0.0
0.0000000000000000 0.0000000000000000 0.0
0.0000000000000000 0.0000000000000000 0.0
0.0000000000000000 0.0000000000000000 0.0
0.0000000000000000 0.0000000000000000 0.0
0.0000000000000000 0.0000000000000000 0.0
0.0000000000000000 0.0000000000000000 0.0
0.0000000000000000 0.0000000000000000 0.0
0.0000000000000000 0.0000000000000000 0.0
0.0000000000000000 0.0000000000000000 0.0
0.0000000000000000 0.0000000000000000 0.0
0.0000000000000000 0.0000000000000000 0.0
0.0000000000000000 0.0000000000000000 0.0
1.0000000000000000 0.0000000000000000 0.0
1.0000000000000000 0.0000000000000000 0.0
1.0000000000000000 0.0000000000000000 0.0
1.0000000000000000 0.0000000000000000 0.0
1.0000000000000000 0.0000000000000000 0.0
1.0000000000000000 0.0000000000000000 0.0
1.0000000000000000 0.0000000000000000 0.0
1.0000000000000000 0.0000000000000000 0.0
1.0000000000000000 0.0000000000000000 0.0
0.0000000000000000 0.0000000000000000 0.0
0.0000000000000000 0.0000000000000000 0.0
0.0000000000000000 0.0000000000000000 0.0
0.0000000000000000 0.0000000000000000 0.0
0.0000000000000000 0.0000000000000000 0.0
0.0000000000000000 0.0000000000000000 0.0
0.0000000000000000 0.0000000000000000 0.0
0.0000000000000000 0.0000000000000000 0.0
0.0000000000000000 0.0000000000000000 0.0
0.0000000000000000 0.0000000000000000 0.0
0.0000000000000000 0.0000000000000000 0.0
0.0000000000000000 0.0000000000000000 0.0
0.0000000000000000 0.0000000000000000 0.0
0.0000000000000000 0.0000000000000000 0.0
0.0000000000000000 0.0000000000000000 0.0
0.0000000000000000 0.0000000000000000 0.0
0.0000000000000000 0.0000000000000000 0.0
0.0000000000000000 0.0000000000000000 0.0
0.0000000000000000 0.0000000000000000 0.0
0.0000000000000000 0.0000000000000000 0.0
0.0000000000000000 0.0000000000000000 0.0
0.0000000000000000 0.0000000000000000 0.0
0.0000000000000000 0.0000000000000000 0.0
0.0000000000000000 0.0000000000000000 0.0
0.0000000000000000 0.0000000000000000 0.0
0.0000000000000000 0.0000000000000000 0.0
0.0000000000000000 0.0000000000000000 0.0
0.0000000000000000 0.0000000000000000 0.0
0.0000000000000000 0.0000000000000000 0.0
0.0000000000000000 0.0000000000000000 0.0
0.0000000000000000 0.0000000000000000 0.0
0.0000000000000000 0.0000000000000000 0.0
0.0000000000000000 0.0000000000000000 0.0
0.0000000000000000 0.0000000000000000 0.0
0.0000000000000000 0.0000000000000000 0.0
0.0000000000000000 0.0000000000000000 0.0
0.0000000000000000 0.0000000000000000 0.0
0.0000000000000000 0.0000000000000000 0.0
0.0000000000000000 0.0000000000000000 0.0
0.0000000000000000 0.0000000000000000 0.0
0.0000000000000000 0.0000000000000000 0.0
0.0000000000000000 0.0000000000000000 0.0
0.0000000000000000 0.0000000000000000 0.0
0.0000000000000000 0.0000000000000000 0.0
0.0000000000000000 0.0000000000000000 0.0
0.0000000000000000 0.0000000000000000 0.0
0.0000000000000000 0.0000000000000000 0.0
0.0000000000000000 0.0000000000000000 0.0
0.0000000000000000 0.0000000000000000 0.0
1.0711211375595895 -0.4638991306064573 0.0
0.9660501411747711 -0.1978678747948202 0.0
0.9840386329594536 -0.0308296010960163 0.0
1.0703723425309115 0.3854631462927578 0.0
1.3957034454617687 0.0056691292471166 0.0
1.4817736520842937 -0.0973502615920412 0.0
1.4699551831726192 -0.1888713114807096 0.0
1.2352311178097763 -0.1229622275658360 0.0
1.3356908032886712 -0.0749462653025349 0.0
1.5321486085332132 -0.1168128496087043 0.0
1.5899563609785043 -0.0302567191196720 0.0
1.5332608126618528 0.0204878917022405 0.0
1.5837656569183987 0.0981905951762785 0.0
1.5106817420152285 -0.1194027117185237 0.0
1.1765645744982201 0.0040382118108700 0.0
1.3610923320347865 -0.0964893406825691 0.0
1.2331793461829539 0.2482111202126474 0.0
1.5844056414844803 0.0724258311321264 0.0
1.5631097138635976 0.0081482434892871 0.0
1.1398333963796707 -0.0428539102397068 0.0
1.2520137751486560 -0.0165229440099926 0.0
1.1412375561558636 -0.0704022923783972 0.0
1.5271640082862403 -0.0567290568399189 0.0
1.5804631212589517 0.0551184755639583 0.0
1.2263833391128600 0.0978323286168405 0.0
1.1261521973545499 -0.2548494777132871 0.0
1.4955959372668253 0.0144532412318020 0.0
1.4955463945570644 -0.0177265073841147 0.0
1.5251934652916537 0.0356205137129049 0.0
1.5471506235682204 0.0132582939815246 0.0
1.3231841239197868 -0.1138335587674205 0.0
1.4872538721873838 0.0099128940561544 0.0
1.6541010154710660 0.0257966916317647 0.0
1.3610610525910416 0.1309271910578866 0.0
1.4750390944904341 -0.0468072224119729 0.0
1.3835018092661102 -0.0480108766714771 0.0
1.3379094670404943 -0.1391956307917551 0.0
1.5112649671236462 0.0929828146111236 0.0
1.5117945078119042 0.0023775899268189 0.0
1.6249226273481214 -0.1065907463409324 0.0
1.6830016786191635 -0.0380746782596912 0.0
1.2010683953115686 -0.1031181404759453 0.0
1.5893107690377029 -0.0202822671068888 0.0
0.9610616261914646 0.0662973939942324 0.0
0.8401579175045385 0.0376983738741736 0.0
1.3816166829146135 -0.0449413899210818 0.0
0.8587384866147210 0.0417533228620404 0.0
0.8446635997120239 -0.0535907457893955 0.0
0.9731443418193907 0.0572645901192106 0.0
1.3442775023985183 -0.0566229321423667 0.0
1.8004837065715318 -0.1359289815382150 0.0
1.2804022415739431 0.0006141891953264 0.0
0.9749609109573995 -0.0714133014581155 0.0
1.4662849207682929 -0.1187405393329930 0.0
1.3650321906457876 0.0416541918229996 0.0
1.3287226159091263 0.0010459710065039 0.0
1.2158010845835541 -0.0203704125206558 0.0
1.0895682130761952 -0.0838817580832942 0.0
1.0514818204207872 0.0304040157825366 0.0
1.2479921351233667 0.0247096718861294 0.0
1.4510529965020840 -0.0618782475273989 0.0
1.2280968347474257 -0.0303595007513466 0.0
1.2024384786801934 -0.2095870492386598 0.0
1.1225742748008758 0.3467546864444562 0.0
1.1032008795881956 0.2096375276621490 0.0
1.4620008979408019 -0.0794562147824557 0.0
1.3100036234590593 0.1106831544728060 0.0
1.3995821009646257 0.0532678640246806 0.0
1.2318878613071864 0.0224253975731589 0.0
1.7382863478676411 0.0681570317557404 0.0
1.4844979640794747 -0.0105390361804449 0.0
1.4139409981040967 -0.0594862423013318 0.0
0.9054969303170033 0.0240383056137415 0.0
1.0949361215671984 -0.0112939516216985 0.0
1.6053261705576769 -0.1343196435538438 0.0
1.3116911926004140 0.0489579285180750 0.0
1.4482574592313562 0.0721388993786667 0.0
1.4008562774936257 -0.0602813022463592 0.0
1.2409039029744915 -0.0434609071453750 0.0
1.5393341932780036 -0.0425656736547939 0.0
1.6094723303039042 0.0403567801594832 0.0
1.4003125617381438 0.0233961964115989 0.0
1.4326738582532985 -0.0906424519590850 0.0
1.0761694768590417 -0.0951711372720568 0.0
0.9692267464432506 0.0118215711745621 0.0
1.5204021484164292 -0.1832631471839691 0.0
1.2376456916585041 -0.0964992310175903 0.0
1.5845274747550322 0.0135184118652983 0.0
0.5686401294714812 0.0299554580238550 0.0
0.8515022612439360 0.1055507105748001 0.0
1.6626034929664215 0.0133762479458807 0.0
1.2482320856141265 -0.0063802031819354 0.0
0.8435065416986951 0.0375460052174117 0.0
1.3239997540335506 -0.1076551781902244 0.0
1.1910403566644858 0.0055957401842701 0.0
1.1027706876473140 -0.2836822244523420 0.0
0.8003479005630656 0.0371469890135004 0.0
1.5947871574471009 0.0114691852071765 0.0
1.6646232650422041 -0.0091970500700775 0.0
0.8196781347055270 0.1118750650858772 0.0
1.6079938767196447 0.0561252413411250 0.0
1.0891691484687613 -0.2312978244715488 0.0
1.2208156978727642 0.0322808156256899 0.0
1.0960690109074132 -0.0423574105004856 0.0
1.2306959678508687 0.0140722295014930 0.0
1.6700276895584225 -0.0216888520460622 0.0
1.4523410173351177 -0.2144098481487451 0.0
1.4484764116172872 0.0458660010811179 0.0
1.4480539315806229 0.0890785819740582 0.0
1.3492844794586814 -0.0519657721817763 0.0
0.7452589969184409 -0.0909040929592946 0.0
1.4589329247960132 -0.1567998570865325 0.0
0.6538712285648928 -0.0046622170600731 0.0
1.2291630615728395 -0.0543146578569466 0.0
1.0577078003767406 0.0154215471991643 0.0
1.2815162222153655 -0.0358761450449459 0.0
1.1681526297689988 0.2323734370300183 0.0
1.3111864293325333 0.1037244071978651 0.0
0.6943024242601075 -0.0036027739157029 0.0
1.2075642660185733 -0.0802827622240176 0.0
0.7056812904728347 0.0045911584347616 0.0
1.6563311144123432 0.0019169315625432 0.0
1.0150793575499049 0.0772663556291207 0.0
1.3473578237088648 -0.1383686529883271 0.0
1.1381926846969244 0.0014935871810896 0.0
1.4872969278535177 -0.1418584295765915 0.0
0.5485872432557605 -0.0455502682596394 0.0
1.1806999585248956 -0.0784268054221991 0.0
1.1724745937942027 -0.1274694735552754 0.0
1.2867725961289598 -0.1040912683207874 0.0
1.6373408339437694 -0.0138688620909835 0.0
1.6048232994370060 0.0503586013724027 0.0
0.8819516278564136 0.0841076044069166 0.0
1.2407508584705165 -0.0445083388685701 0.0
0.7428554940737206 0.1132147625936570 0.0
0.5924776298439065 -0.0026903909247077 0.0
0.4194618966791779 0.0219079716357293 0.0
1.4676482300606861 -0.1091762112867448 0.0
0.5550624113176568 0.1788752055696875 0.0
0.7003883312317151 -0.0056812550842606 0.0
1.5619966136158561 0.0252167360473036 0.0
1.2858490390688175 -0.0509826891930162 0.0
1.2097460543464986 -0.0405751622895669 0.0
1.5677793738928543 0.0693384263193873 0.0
1.4487507166675224 -0.0681718677694836 0.0
1.5716582963343213 0.0288756029085676 0.0
1.1836755547814999 0.0547452954660448 0.0
1.1108784037038093 -0.2603378688592674 0.0
1.2283883380305245 0.1859306032622341 0.0
1.1072857753204348 0.2418264275804089 0.0
1.0737820049324895 -0.0461759727330375 0.0
1.1845140517969144 0.0250475482524272 0.0
0.9319410653669280 0.0425036609429501 0.0
0.5814149553526068 0.1614180362571868 0.0
0.9917798962384035 -0.0116486699122125 0.0
1.4465545172432375 -0.0419024738121714 0.0
0.7658461998323564 0.0675591618516037 0.0
1.1852688351069238 0.0644166650026516 0.0
1.4911793388510366 -0.0738068757065582 0.0
0.8785591299245044 -0.0236986678514147 0.0
1.2624100512393150 0.0302843686695881 0.0
1.5258299476413273 0.0514085019189120 0.0
1.1860355223602228 -0.2036876818696349 0.0
1.3139292343657989 -0.1129723193128425 0.0
0.5125426568613961 0.1570746444532320 0.0
0.5108500641112828 0.1258209564335220 0.0
0.8396951465271376 -0.0137125150933547 0.0
1.4751378664330546 -0.0806547344888215 0.0
1.4789242236067406 -0.0909381705028080 0.0
0.5449267926570159 0.1805769404595135 0.0
0.6837925168112199 -0.0621558844403961 0.0
1.1214137393714860 0.0212843600902881 0.0
1.4691086133466373 -0.1183441344358617 0.0
0.9857820879679429 -0.0136283592398653 0.0
1.3413446783546017 0.0096425733640313 0.0
1.4076105706077540 -0.1019383682322649 0.0
0.9658805467650869 0.0081972679650484 0.0
0.8753006686671135 0.0704520664099274 0.0
1.3265418447360480 -0.0012285737505261 0.0
0.7685673446777245 -0.0260078589005861 0.0
1.5634665967165582 -0.0255311396633536 0.0
0.7658513457475858 0.0220040061994477 0.0
0.7723988139673741 -0.0298264936082463 0.0
1.2961474977900764 -0.0806718182265291 0.0
1.4107554685593457 -0.0128287059597293 0.0
0.9897428467266567 0.0115772014557201 0.0
0.5891479250125582 0.1995752515962850 0.0
0.9124648472797691 -0.0048122868570066 0.0
1.1395220402786872 -0.0556096906550843 0.0
0.8124917810290030 0.0994078451662624 0.0
1.1627140686077513 0.1544095426766689 0.0
1.0678881970457397 -0.0051872555254665 0.0
0.6811168893357097 0.0184506638877149 0.0
1.5268745865576607 -0.0212492622000285 0.0
0.9042153020666094 -0.0122071409901871 0.0
1.5503919418481622 -0.0268012897456145 0.0
0.4140161302109980 -0.0307994140436489 0.0
1.4727750121192762 -0.1722685545611422 0.0
1.6035282740876169 -0.0121011366115947 0.0
0.5388055407128993 0.1186595816056981 0.0
0.7790111475451539 -0.0246547733909740 0.0
1.5846790605300554 0.0678600405793387 0.0
0.9343347582319024 0.0956720384068163 0.0
1.5623620272854339 0.0582488461463233 0.0
0.9668150250551736 -0.0017792596555588 0.0
0.7998971652543074 -0.0599683879050379 0.0
0.6692227123049446 -0.0385643405230194 0.0
1.0208196828105154 -0.0256824007019293 0.0
1.0040618612739753 0.0297781868986781 0.0
1.4548640075352630 0.0139302404193924 0.0
0.5586308267368140 0.0374146133925226 0.0
0.8828704449891184 -0.0616434759060655 0.0
0.8522519655041929 0.0504330089227025 0.0
1.4232721729944706 0.0805838306864784 0.0
0.8007487683390256 -0.2000498899406385 0.0
0.8301443986127178 -0.0258724488655965 0.0
0.5225872759448728 -0.0487251857760037 0.0
1.0266477427660490 0.0344985711184973 0.0
0.7064291609861851 0.2024489200105792 0.0
0.9033995529846153 0.0437977267166400 0.0
1.2685536085970925 -0.1125416827695670 0.0
0.7621235306377558 -0.0188769474683887 0.0
0.9010843196524628 -0.0015766128874585 0.0
0.9715268440697393 -0.0044737378470354 0.0
0.7925861992933958 -0.0313712506906463 0.0
0.7696634825275125 -0.0442438139975351 0.0
1.4947617936700071 0.0251525614884703 0.0
0.8008141653256907 -0.0313529557654616 0.0
1.0391249654481758 -0.0905254140280474 0.0
0.8394283356606888 0.0547864009450309 0.0
1.2915703030867751 -0.0269103019286011 0.0
0.6320229235593022 -0.0197881920092679 0.0
0.3775914462347454 0.0049254547785972 0.0
1.1954098250158023 -0.1150438201279787 0.0
0.8369288000027675 0.1030927267418004 0.0
0.7951709489892234 -0.0163596378533144 0.0
0.9607929959686276 0.0558710219661762 0.0
1.3818168454789566 -0.0341784503440293 0.0
0.6539690460836338 -0.0214419513136959 0.0
1.2168248062099529 0.1882904942466805 0.0
1.5039436319582995 0.0071060675361041 0.0
0.7108372881364187 -0.0127688773079392 0.0
1.1434894583434769 0.0043198301281411 0.0
1.2816711642730230 -0.0736292743376846 0.0
1.0692865928773605 -0.0562483048109924 0.0
1.4649967647701487 -0.1306453789136064 0.0
0.4559368050485050 0.2183320039032284 0.0
1.7303584546976234 0.0213488473220038 0.0
1.3837780744961006 0.0401676250433868 0.0
0.5550848580636047 0.0509248417798557 0.0
1.4819855473968775 -0.1586959259906326 0.0
1.5173444766132349 -0.0875308978166567 0.0
0.6329849660559583 -0.0078009852367561 0.0
1.0263109380344901 -0.0202612469339582 0.0
0.6730593533473755 -0.0388254689736516 0.0
0.9512720275412434 -0.0773499328733795 0.0
0.7842158713625207 -0.0530671004705906 0.0
0.3883730796842520 0.2192202787742004 0.0
1.1136132759820658 0.2587920272961937 0.0
1.5950754867740438 0.0093377809994715 0.0
0.5777569131687834 0.2224840254872641 0.0
1.5777927060590513 -0.0636028529497906 0.0
1.7460918844552928 0.0987567199636010 0.0
0.5338601063928278 0.2188667003547399 0.0
1.4841130136328959 0.0473354899523663 0.0
1.4151978699894276 -0.1361459654917088 0.0
0.9235222531759332 0.2511532147914706 0.0
1.2871779472672957 -0.0209940576679943 0.0
1.3175559459773323 0.0224032697438668 0.0
0.7802900194139356 0.0898309120408503 0.0
1.3380130460028197 -0.1173261642761253 0.0
0.6953227636098283 -0.0566013258965179 0.0
0.5690314894020213 0.2039676193629243 0.0
0.3960651226945064 0.0193577428432081 0.0
1.1936750508669125 -0.0150843713821411 0.0
0.8834516839492432 -0.2763873623896825 0.0
1.4218460208689772 0.1020424646779941 0.0
1.2972933490168754 -0.1133369306398152 0.0
0.5593579531402317 -0.0119842787532118 0.0
0.5796963649993196 0.0491302301602893 0.0
0.6990885260894939 0.0180745541838367 0.0
1.1747915332899304 -0.0049478869364304 0.0
1.2021842839934787 0.3137638482474046 0.0
0.5615234196177601 -0.0324901366248413 0.0
1.1157729800349887 -0.0687467275196405 0.0
0.5923857543581613 0.0404116439625045 0.0
1.5694601135638029 0.0405721654240396 0.0
0.4502359256151950 0.2544435492638343 0.0
0.7394782115276097 -0.1225113094676970 0.0
1.5421655631468469 -0.0451053359957809 0.0
1.2518252450212006 0.0392675165130585 0.0
1.5393567401314303 -0.1418882955865645 0.0
0.6831793630488192 0.0059976368905470 0.0
0.8722146588183654 -0.0342523123804412 0.0
1.4594722817540444 -0.1037861413464154 0.0
1.4390880227467198 -0.0932139199075917 0.0
1.0276082141146090 0.0663977739256604 0.0
1.4506370753886844 0.0379854811848835 0.0
1.3484675619112017 -0.0641077728454094 0.0
1.2823069738021000 0.1679571037928605 0.0
0.8083211049367524 -0.0071345909694617 0.0
0.7446076849107270 -0.0212814123720739 0.0
0.6769890891647039 -0.0462779431891499 0.0
1.3214459142136263 -0.0650664043343651 0.0
1.3328690426081704 -0.0866992053473476 0.0
1.1561557725276470 0.1227710576799456 0.0
0.3256004971016830 0.0321667751519579 0.0
1.4390760281426358 -0.0916127110488805 0.0
0.2932808849767681 0.1111382971669891 0.0
0.6918356510758226 0.1211333336988376 0.0
1.0403946077609625 0.0518307868494926 0.0
0.5382113383037059 -0.1144006562876013 0.0
1.1458471199480906 -0.3180887220252226 0.0
1.4103421284547513 -0.0732525745209875 0.0
1.6093729024654588 -0.0188781271017157 0.0
0.7315660238267200 0.1116922947408866 0.0
1.5206319672574158 -0.0624875990836128 0.0
0.9323438111911772 -0.0331155634517062 0.0
1.4161655622623515 -0.0646259927799336 0.0
0.9339636065296439 -0.0255022259198047 0.0
0.4782885139283257 0.2164152474658166 0.0
0.9082902259189671 -0.0554973170398262 0.0
1.0262908194635239 -0.0642739581453454 0.0
1.5686309684729531 -0.0455705535034071 0.0