# vtk DataFile Version 3.0
LucasCarvalhoTCC Results
ASCII

DATASET POLYDATA
FIELD FieldData 1
TIME 1 1 double
3.6

POINTS 600 float
0.0 2.0 0.0
0.25 1.989125 0.0
0.5 1.958 0.0
0.75 1.908875 0.0
1.0 1.844 0.0
1.25 1.765625 0.0
1.5 1.676 0.0
1.75 1.577375 0.0
2.0 1.472 0.0
2.25 1.362125 0.0
2.5 1.25 0.0
2.75 1.137875 0.0
3.0 1.028 0.0
3.25 0.922625 0.0
3.5 0.8240000000000001 0.0
3.75 0.734375 0.0
4.0 0.6560000000000001 0.0
4.25 0.5911249999999999 0.0
4.5 0.542 0.0
4.75 0.510875 0.0
5.0 0.5 0.0
5.25 0.5036250000000004 0.0
5.5 0.5140000000000002 0.0
5.75 0.5303750000000003 0.0
6.0 0.5519999999999996 0.0
6.25 0.578125 0.0
6.5 0.6080000000000005 0.0
6.75 0.6408749999999999 0.0
7.0 0.6760000000000002 0.0
7.25 0.7126249999999992 0.0
7.5 0.75 0.0
7.75 0.7873750000000004 0.0
8.0 0.8239999999999994 0.0
8.25 0.8591250000000001 0.0
8.5 0.8919999999999999 0.0
8.75 0.921875 0.0
9.0 0.9479999999999991 0.0
9.25 0.9696250000000011 0.0
9.5 0.9859999999999984 0.0
9.75 0.9963750000000013 0.0
10.0 1.0 0.0
0.0 0.0 0.0
10.0 0.0 0.0
0.124999999999674 1.994562500000014 0.0
0.3749999999999947 1.973562500000001 0.0
0.6249999999999918 1.933437500000002 0.0
0.874999999999979 1.876437500000006 0.0
1.124999999999963 1.804812500000012 0.0
1.374999999999944 1.72081250000002 0.0
1.624999999999985 1.626687500000006 0.0
1.874999999999953 1.52468750000002 0.0
2.124999999999936 1.417062500000028 0.0
2.374999999999952 1.306062500000022 0.0
2.624999999999919 1.193937500000036 0.0
2.87499999999992 1.082937500000035 0.0
3.124999999999946 0.9753125000000229 0.0
3.374999999999948 0.8733125000000204 0.0
3.624999999999972 0.77918750000001 0.0
3.874999999999963 0.6951875000000118 0.0
4.124999999999968 0.6235625000000082 0.0
4.394409538298571 0.5627485257243309 0.0
4.583333333333322 0.5316250000000015 0.0
4.666666666666668 0.5212499999999999 0.0
4.833333333333334 0.50725 0.0
4.916666666666667 0.503625 0.0
5.083333333333334 0.5012083333333335 0.0
5.166666666666666 0.502416666666667 0.0
5.333333333333334 0.5070833333333337 0.0
5.416666666666667 0.510541666666667 0.0
5.583333333333334 0.5194583333333336 0.0
5.666666666666666 0.5249166666666669 0.0
5.833333333333338 0.5375833333333339 0.0
5.916666666666661 0.544791666666666 0.0
6.105781577147724 0.5630541748119369 0.0
6.375 0.5930625000000003 0.0
6.624999999999988 0.6244374999999988 0.0
6.874999999999994 0.6584374999999991 0.0
7.125 0.6943124999999997 0.0
7.375 0.7313124999999996 0.0
7.624999999999994 0.7686874999999992 0.0
7.875 0.8056874999999999 0.0
8.125 0.8415624999999998 0.0
8.374999999999991 0.8755624999999989 0.0
8.624999999999995 0.9069374999999993 0.0
8.874999999999995 0.9349374999999991 0.0
9.125 0.9588125000000001 0.0
9.375 0.9778124999999998 0.0
9.625 0.9911874999999999 0.0
9.875 0.9981875000000007 0.0
0.0 1.799999999999167 0.0
0.0 1.6 0.0
0.0 1.400000000001387 0.0
0.0 1.200000000002774 0.0
0.0 1.000000000004117 0.0
0.0 0.8000000000033287 0.0
0.0 0.6000000000024965 0.0
0.0 0.4000000000016644 0.0
0.0 0.200000000000832 0.0
0.199999999999856 0.0 0.0
0.3999999999996677 0.0 0.0
0.5999999999994683 0.0 0.0
0.7999999999993286 0.0 0.0
0.9999999999991888 0.0 0.0
1.199999999999033 0.0 0.0
1.399999999998576 0.0 0.0
1.599999999997992 0.0 0.0
1.799999999997408 0.0 0.0
1.999999999996825 0.0 0.0
2.199999999996241 0.0 0.0
2.399999999995657 0.0 0.0
2.599999999995073 0.0 0.0
2.79999999999449 0.0 0.0
2.999999999993906 0.0 0.0
3.199999999993322 0.0 0.0
3.399999999992738 0.0 0.0
3.599999999992154 0.0 0.0
3.799999999991571 0.0 0.0
3.999999999991022 0.0 0.0
4.199999999991187 0.0 0.0
4.399999999991491 0.0 0.0
4.599999999991795 0.0 0.0
4.799999999992099 0.0 0.0
4.999999999992403 0.0 0.0
5.199999999992706 0.0 0.0
5.39999999999301 0.0 0.0
5.599999999993313 0.0 0.0
5.799999999993618 0.0 0.0
5.999999999993922 0.0 0.0
6.199999999994227 0.0 0.0
6.39999999999453 0.0 0.0
6.599999999994833 0.0 0.0
6.799999999995138 0.0 0.0
6.999999999995442 0.0 0.0
7.199999999995747 0.0 0.0
7.39999999999605 0.0 0.0
7.599999999996353 0.0 0.0
7.799999999996658 0.0 0.0
7.999999999996962 0.0 0.0
8.199999999997265 0.0 0.0
8.399999999997569 0.0 0.0
8.599999999997873 0.0 0.0
8.799999999998176 0.0 0.0
8.99999999999848 0.0 0.0
9.199999999998786 0.0 0.0
9.399999999999089 0.0 0.0
9.599999999999392 0.0 0.0
9.799999999999697 0.0 0.0
10.0 0.1999999999995579 0.0
10.0 0.3999999999989749 0.0
10.0 0.5999999999989468 0.0
10.0 0.7999999999994734 0.0
0.913963423524136 0.9126937851647636 0.0
1.629657910441747 0.8286436141773268 0.0
2.300136613917738 0.6369890708869279 0.0
0.5989085226155619 1.38125543468559 0.0
1.274155622640533 1.242773398230304 0.0
2.860215383945273 0.5217401976756945 0.0
9.469653920408135 0.4910067017840992 0.0
8.984679546317787 0.4696119782494839 0.0
8.499397693277212 0.4463630640980716 0.0
3.270918412356206 0.4522692359356972 0.0
1.223039611612243 0.5146439900227544 0.0
2.024812732135938 1.00818256045515 0.0
0.5365376864627701 0.5434316309416508 0.0
8.114834335444021 0.4602948767329583 0.0
7.742261962994204 0.4117304941858466 0.0
0.9443382341364558 1.456061359265878 0.0
1.665275621558886 1.201744468407863 0.0
1.89566112584099 0.4397284596316843 0.0
3.691409759982064 0.3560936332572802 0.0
7.368457390036411 0.3792926046732459 0.0
0.5071184951703254 0.9340893429149442 0.0
0.3822273842356539 1.647625881691675 0.0
5.916285335387544 0.2564903116750689 0.0
5.628860531758535 0.2582323053999509 0.0
5.380471017960128 0.2502349014663197 0.0
5.139244585769944 0.2549145445969738 0.0
2.686085237972266 0.8031095648160084 0.0
4.507599040026292 0.263176944655695 0.0
6.983755234374982 0.3380000000001097 0.0
9.720925955181613 0.6635813325201156 0.0
1.288006195687152 0.8759679848503046 0.0
9.20556379558699 0.6923669083350594 0.0
2.319913492084225 0.9512500928262699 0.0
8.73203612228155 0.6151508464420534 0.0
4.868679481352366 0.2526598053940744 0.0
4.10358044398202 0.3012437332986487 0.0
6.602422946953217 0.3126221952225479 0.0
2.534693527909069 0.3583319619586092 0.0
6.193332317503376 0.2894654215336858 0.0
0.8804088217382579 0.3735513844182569 0.0
0.7663303172393539 1.679065267574722 0.0
3.081211528283084 0.6968015573146217 0.0
1.241762689885858 1.521465072418641 0.0
1.573472750763779 0.3374689934575129 0.0
1.475107933015155 1.403918544935278 0.0
0.8212739503602162 1.195790902469637 0.0
4.681049549092561 0.3558177014380842 0.0
9.439519900118443 0.7366884444350511 0.0
2.201393787062887 0.3261463175998884 0.0
2.015369189818184 0.7109460688851087 0.0
8.32727069655695 0.6360373328685593 0.0
8.961488632119996 0.7119124617705204 0.0
9.22773266034565 0.3109430611770705 0.0
0.3000513553073295 1.178778127105867 0.0
1.91985473842554 1.233084801189704 0.0
8.749827252515535 0.3049638092131281 0.0
3.50551132590258 0.5576614504134195 0.0
3.040500962406976 0.290446660105673 0.0
9.72097519930939 0.3037986529514364 0.0
0.3073166349239687 0.3249300260882615 0.0
0.2948185331392187 0.7229775107826154 0.0
1.46029425821417 1.06552904833304 0.0
0.8085718129253527 0.673531272847494 0.0
7.913326191751847 0.5738936378911789 0.0
8.295349499871781 0.2556682497524391 0.0
4.31359646688283 0.3665214152100782 0.0
7.542842082022704 0.5249918217576657 0.0
1.058357552227335 1.116692590939024 0.0
2.214297272750292 1.159898327391242 0.0
2.901187336648686 0.8282146771898153 0.0
3.933498145061447 0.4325241689837319 0.0
7.956006969037984 0.2667411694088205 0.0
7.172393179434975 0.4835114022190097 0.0
1.440243631802057 0.6689433452646625 0.0
3.458541882144431 0.2581755850286561 0.0
5.791617360065465 0.3978542524532168 0.0
5.981529865241493 0.3900667299390458 0.0
1.083462543944253 0.7203994120564634 0.0
1.78518471978951 1.008552691762234 0.0
2.77360122246243 0.2689852172070111 0.0
2.565134389978369 0.9928826788184764 0.0
2.543046005790158 0.6034091352176242 0.0
3.293038780485421 0.6769811703257343 0.0
6.790787388653942 0.4353933509634578 0.0
1.140204059461831 0.2538227257007896 0.0
0.6242104065654487 0.2738473600765566 0.0
6.393430278703709 0.3766405270445946 0.0
8.533059390324546 0.6950580701614406 0.0
0.9961263693263854 1.612128843772703 0.0
1.697598586607002 0.5781950992180334 0.0
8.087930458724863 0.6517815437732153 0.0
0.2748906317360928 1.770749713716887 0.0
0.5785110002099415 1.757022387413085 0.0
5.550004842562332 0.3852675728674634 0.0
4.948161884155141 0.3480305424737933 0.0
1.741244734175577 1.381979611033466 0.0
5.312408927381063 0.3621256994047111 0.0
0.2492139438157334 1.453132031680879 0.0
7.597720022451821 0.2370268512906596 0.0
9.471021754366422 0.2472916581956264 0.0
7.714083843672875 0.600212897672991 0.0
4.520815862079482 0.3946753115680038 0.0
2.47356661122767 0.8007389356831706 0.0
7.325494311403363 0.528948935030723 0.0
7.147005275585743 0.2709670165999667 0.0
3.758046446289313 0.5474783841545341 0.0
3.893717059615281 0.1664960777568404 0.0
2.152835534199412 0.8614028741175742 0.0
8.995993312441625 0.1933410497113667 0.0
1.077676137392001 1.368204555688504 0.0
0.2429906229817933 0.9816066505657851 0.0
0.6261765586985547 1.180540007244081 0.0
9.81151801018651 0.816223424030724 0.0
0.6725442903064565 0.8425384371773644 0.0
1.74584086891446 0.2617492458514414 0.0
0.7667820686164357 1.440842670056678 0.0
8.539133693395232 0.1910926418035274 0.0
5.129145653242096 0.3632579123815574 0.0
6.816538849831732 0.2013284992826486 0.0
2.108503954619862 0.5359795950847274 0.0
6.933669557130528 0.4980836483776163 0.0
3.071406705674529 0.4919421055852253 0.0
2.001240035874449 0.2292738462614773 0.0
4.782473531509697 0.4061213127162872 0.0
0.5734126310178208 1.536352720889636 0.0
9.796714529589472 0.4898048068674991 0.0
5.678359041645315 0.373719883316694 0.0
5.427661572827738 0.3646059266294788 0.0
2.075214597532947 1.226969224366912 0.0
3.251521478555126 0.2637671977660283 0.0
2.722180837291864 0.9710783334409533 0.0
9.333262390342384 0.8479609887828539 0.0
1.367251332770493 0.2041553944563636 0.0
1.870721433742522 0.7905989208842599 0.0
1.387906762913351 1.555741687747287 0.0
9.559918612869 0.8444052974080497 0.0
9.286795039366257 0.4698254290795815 0.0
1.507117480770146 1.225129516597721 0.0
[...]
POINT_DATA 600

VECTORS Velocity float
0.0000000000000000 0.0000000000000000 0.0
0.0000000000000000 0.0000000000000000 0.0
0.0000000000000000 0.0000000000000000 0.0
0.0000000000000000 0.0000000000000000 0.0
0.0000000000000000 0.0000000000000000 0.0
0.0000000000000000 0.0000000000000000 0.0
0.0000000000000000 0.0000000000000000 0.0
0.0000000000000000 0.0000000000000000 0.0
0.0000000000000000 0.0000000000000000 0.0
0.0000000000000000 0.0000000000000000 0.0
0.0000000000000000 0.0000000000000000 0.0
0.0000000000000000 0.0000000000000000 0.0
0.0000000000000000 0.0000000000000000 0.0
0.0000000000000000 0.0000000000000000 0.0
0.0000000000000000 0.0000000000000000 0.0
0.0000000000000000 0.0000000000000000 0.0
0.0000000000000000 0.0000000000000000 0.0
0.0000000000000000 0.0000000000000000 0.0
0.0000000000000000 0.0000000000000000 0.0
0.0000000000000000 0.0000000000000000 0.0
0.0000000000000000 0.0000000000000000 0.0
0.0000000000000000 0.0000000000000000 0.0
0.0000000000000000 0.0000000000000000 0.0
0.0000000000000000 0.0000000000000000 0.0
0.0000000000000000 0.0000000000000000 0.0
0.0000000000000000 0.0000000000000000 0.0
0.0000000000000000 0.0000000000000000 0.0
0.0000000000000000 0.0000000000000000 0.0
0.0000000000000000 0.0000000000000000 0.0
0.0000000000000000 0.0000000000000000 0.0
0.0000000000000000 0.0000000000000000 0.0
0.0000000000000000 0.0000000000000000 0.0
0.0000000000000000 0.0000000000000000 0.0
0.0000000000000000 0.0000000000000000 0.0
0.0000000000000000 0.0000000000000000 0.0
0.0000000000000000 0.0000000000000000 0.0
0.0000000000000000 0.0000000000000000 0.0
0.0000000000000000 0.0000000000000000 0.0
0.0000000000000000 0.0000000000000000 0.0
0.0000000000000000 0.0000000000000000 0.0
0.0000000000000000 0.0000000000000000 0.0
0.0000000000000000 0.0000000000000000 0.0
0.8242202734478957 -0.1316299524703008 0.0
0.0000000000000000 0.0000000000000000 0.0
0.0000000000000000 0.0000000000000000 0.0
0.0000000000000000 0.0000000000000000 0.0
0.0000000000000000 0.0000000000000000 0.0
0.0000000000000000 0.0000000000000000 0.0
0.0000000000000000 0.0000000000000000 0.0
0.0000000000000000 0.0000000000000000 0.0
0.0000000000000000 0.0000000000000000 0.0
0.0000000000000000 0.0000000000000000 0.0
0.0000000000000000 0.0000000000000000 0.0
0.0000000000000000 0.0000000000000000 0.0
0.0000000000000000 0.0000000000000000 0.0
0.0000000000000000 0.0000000000000000 0.0
0.0000000000000000 0.0000000000000000 0.0
0.0000000000000000 0.0000000000000000 0.0
0.0000000000000000 0.0000000000000000 0.0
0.0000000000000000 0.0000000000000000 0.0
0.0000000000000000 0.0000000000000000 0.0
0.0000000000000000 0.0000000000000000 0.0
0.0000000000000000 0.0000000000000000 0.0
0.0000000000000000 0.0000000000000000 0.0
0.0000000000000000 0.0000000000000000 0.0
0.0000000000000000 0.0000000000000000 0.0
0.0000000000000000 0.0000000000000000 0.0
0.0000000000000000 0.0000000000000000 0.0
0.0000000000000000 0.0000000000000000 0.0
0.0000000000000000 0.0000000000000000 0.0
0.0000000000000000 0.0000000000000000 0.0
0.0000000000000000 0.0000000000000000 0.0
0.0000000000000000 0.0000000000000000 0.0
0.0000000000000000 0.0000000000000000 0.0
0.0000000000000000 0.0000000000000000 0.0
0.0000000000000000 0.0000000000000000 0.0
0.0000000000000000 0.0000000000000000 0.0
0.0000000000000000 0.0000000000000000 0.0
0.0000000000000000 0.0000000000000000 0.0
0.0000000000000000 0.0000000000000000 0.0
0.0000000000000000 0.0000000000000000 0.0
0.0000000000000000 0.0000000000000000 0.0
0.0000000000000000 0.0000000000000000 0.0
0.0000000000000000 0.0000000000000000 0.0
0.0000000000000000 0.0000000000000000 0.0
0.0000000000000000 0.0000000000000000 0.0
0.0000000000000000 0.0000000000000000 0.0
0.0000000000000000 0.0000000000000000 0.0
0.0000000000000000 0.0000000000000000 0.0
1.0000000000000000 0.0000000000000000 0.0
1.0000000000000000 0.0000000000000000 0.0
1.0000000000000000 0.0000000000000000 0.0
1.0000000000000000 0.0000000000000000 0.0
1.0000000000000000 0.0000000000000000 0.0
1.0000000000000000 0.0000000000000000 0.0
1.0000000000000000 0.0000000000000000 0.0
1.0000000000000000 0.0000000000000000 0.0
1.0000000000000000 0.0000000000000000 0.0
0.0000000000000000 0.0000000000000000 0.0
0.0000000000000000 0.0000000000000000 0.0
0.0000000000000000 0.0000000000000000 0.0
0.0000000000000000 0.0000000000000000 0.0
0.0000000000000000 0.0000000000000000 0.0
0.0000000000000000 0.0000000000000000 0.0
0.0000000000000000 0.0000000000000000 0.0
0.0000000000000000 0.0000000000000000 0.0
0.0000000000000000 0.0000000000000000 0.0
0.0000000000000000 0.0000000000000000 0.0
0.0000000000000000 0.0000000000000000 0.0
0.0000000000000000 0.0000000000000000 0.0
0.0000000000000000 0.0000000000000000 0.0
0.0000000000000000 0.0000000000000000 0.0
0.0000000000000000 0.0000000000000000 0.0
0.0000000000000000 0.0000000000000000 0.0
0.0000000000000000 0.0000000000000000 0.0
0.0000000000000000 0.0000000000000000 0.0
0.0000000000000000 0.0000000000000000 0.0
0.0000000000000000 0.0000000000000000 0.0
0.0000000000000000 0.0000000000000000 0.0
0.0000000000000000 0.0000000000000000 0.0
0.0000000000000000 0.0000000000000000 0.0
0.0000000000000000 0.0000000000000000 0.0
0.0000000000000000 0.0000000000000000 0.0
0.0000000000000000 0.0000000000000000 0.0
0.0000000000000000 0.0000000000000000 0.0
0.0000000000000000 0.0000000000000000 0.0
0.0000000000000000 0.0000000000000000 0.0
0.0000000000000000 0.0000000000000000 0.0
0.0000000000000000 0.0000000000000000 0.0
0.0000000000000000 0.0000000000000000 0.0
0.0000000000000000 0.0000000000000000 0.0
0.0000000000000000 0.0000000000000000 0.0
0.0000000000000000 0.0000000000000000 0.0
0.0000000000000000 0.0000000000000000 0.0
0.0000000000000000 0.0000000000000000 0.0
0.0000000000000000 0.0000000000000000 0.0
0.0000000000000000 0.0000000000000000 0.0
0.0000000000000000 0.0000000000000000 0.0
0.0000000000000000 0.0000000000000000 0.0
0.0000000000000000 0.0000000000000000 0.0
0.0000000000000000 0.0000000000000000 0.0
0.0000000000000000 0.0000000000000000 0.0
0.0000000000000000 0.0000000000000000 0.0
0.0000000000000000 0.0000000000000000 0.0
0.0000000000000000 0.0000000000000000 0.0
0.0000000000000000 0.0000000000000000 0.0
0.0000000000000000 0.0000000000000000 0.0
1.0711254162129289 -0.4640996138709715 0.0
0.9660031724641900 -0.1982711350314069 0.0
0.9840677584094115 -0.0311858649187210 0.0
1.0703874979735779 0.3853995803487279 0.0
1.4086176659595817 0.0066047700347601 0.0
1.4944312150860330 -0.1005034750570143 0.0
1.4740717455697414 -0.1914252679819499 0.0
1.2349103361771538 -0.1272415444201578 0.0
1.3369971510284775 -0.0727535232420846 0.0
1.5333163999001298 -0.1171802494817133 0.0
1.5903612822326785 -0.0304236682623933 0.0
1.5334094864723924 0.0206401523712028 0.0
1.5837713972036613 0.0985214486347133 0.0
1.5107881666792427 -0.1191972485832517 0.0
1.1712200235078896 0.0045991797873633 0.0
1.3647943911536700 -0.0956612318610570 0.0
1.2330343009408737 0.2531990106172058 0.0
1.5844541523958759 0.0725285386732444 0.0
1.5631947857083559 0.0078841542215863 0.0
1.1332688820758516 -0.0411415764302951 0.0
1.2493345750200222 -0.0142573828970263 0.0
1.1371150714254721 -0.0745183318224976 0.0
1.5270812358871120 -0.0568036790811042 0.0
1.5804302447614345 0.0552113915860294 0.0
1.2327415357324727 0.0994580986588139 0.0
1.1221771429663965 -0.2582256932349759 0.0
1.4955576105507775 0.0144200358543642 0.0
1.4955005000974495 -0.0177090198928924 0.0
1.5251594508713642 0.0356282044796056 0.0
1.5471183900322125 0.0132594773056738 0.0
1.3232437702198561 -0.1131020877152257 0.0
1.4872501765682011 0.0099279590713215 0.0
1.6540884177151867 0.0258430897575066 0.0
1.3614161029347689 0.1308118553073800 0.0
1.4895227440196073 -0.0474665079374498 0.0
1.3840448833910963 -0.0480000571274909 0.0
1.3397122937749046 -0.1380702226615753 0.0
1.5116183030556081 0.0931213101350785 0.0
1.5117772433734440 0.0023951372023144 0.0
1.6249162332237503 -0.1066233503535758 0.0
1.6830011355272620 -0.0380699877599687 0.0
1.2001333770405678 -0.1049639728380518 0.0
1.5893057961561656 -0.0203042113370338 0.0
0.9532555072555671 0.0686132577041317 0.0
0.8313871525820676 0.0389107910045646 0.0
1.3816773943771008 -0.0442692010711195 0.0
0.8496813988083329 0.0455066981123716 0.0
0.8358546168575846 -0.0543438352812416 0.0
0.9656222222978592 0.0605357759343046 0.0
1.3520940144245985 -0.0584486584859286 0.0
1.8004993724696072 -0.1359294225832669 0.0
1.2808020726781115 0.0006241219558057 0.0
0.9717441810331418 -0.0724052441869201 0.0
1.4736266736646018 -0.1223605045773296 0.0
1.3649708461021690 0.0418067190683756 0.0
1.3291922321396201 0.0010163194429595 0.0
1.2151803348038357 -0.0203192940920029 0.0
1.0913763496795588 -0.0884358743168974 0.0
1.0459131316124819 0.0332347908207022 0.0
1.2476566077395375 0.0249065053074303 0.0
1.4511813756724616 -0.0618659018556535 0.0
1.2281309439626060 -0.0304488960077183 0.0
1.2020886179497963 -0.2098904479322228 0.0
1.1213219069513793 0.3487478258979877 0.0
1.1041508025651092 0.2124027263831620 0.0
1.4718443052169672 -0.0809676070547101 0.0
1.3131814510278483 0.1156884119014894 0.0
1.3994232205255868 0.0531391916143930 0.0
1.2319699100549368 0.0225395432747579 0.0
1.7382838032950125 0.0681655972249551 0.0
1.4846474242589534 -0.0106285526621093 0.0
1.4251013345352823 -0.0596395962941487 0.0
0.9011087599633665 0.0269694210200330 0.0
1.0940732957065260 -0.0107451382430093 0.0
1.6053564940831722 -0.1344065182073899 0.0
1.3118724797209682 0.0489056768293765 0.0
1.4483281517152542 0.0722244899854047 0.0
1.4072654038131565 -0.0628581606764858 0.0
1.2407552001915352 -0.0434277712867443 0.0
1.5394354111096480 -0.0425770224138337 0.0
1.6095176930895161 0.0403353085035644 0.0
1.4089789854546366 0.0250428428656978 0.0
1.4399949797279532 -0.0915059154899163 0.0
1.0756908434198209 -0.0958630565142058 0.0
0.9672195122776862 0.0142185599133912 0.0
1.5233150399037771 -0.1849874163931652 0.0
1.2376476622310519 -0.0962989979773389 0.0
1.5845267484955585 0.0135190171187388 0.0
0.5597488967153671 0.0303564241017819 0.0
0.8460970891791814 0.1072912516540276 0.0
1.6626015314616076 0.0133745177420520 0.0
1.2484095756865727 -0.0062408266082582 0.0
0.8340063930060739 0.0404694129776516 0.0
1.3264244782369001 -0.1110936414524712 0.0
1.1908073028577217 0.0056043044451344 0.0
1.1010189189359283 -0.2849291506857011 0.0
0.7939971599809109 0.0371393865537247 0.0
1.5948547360476282 0.0114856984398967 0.0
1.6646554768050235 -0.0091811938247562 0.0
0.8125603810228522 0.1148949356558167 0.0
1.6080439480362814 0.0561297068678294 0.0
1.0885549365329994 -0.2365469442504371 0.0
1.2206880456468261 0.0322006047852465 0.0
1.0953657667315047 -0.0424782478559046 0.0
1.2306676808106030 0.0139510803497876 0.0
1.6700386324719867 -0.0216785161746846 0.0
1.4553671927070804 -0.2146423367201147 0.0
1.4486086739267336 0.0459431650744177 0.0
1.4480001091291230 0.0891426811411750 0.0
1.3494337713414204 -0.0520461704705712 0.0
0.7452193654288705 -0.0909307930523997 0.0
1.4657711921944028 -0.1577542062361865 0.0
0.6533948654751189 -0.0045710142371087 0.0
1.2251459958408308 -0.0517518325264254 0.0
1.0593464446632086 0.0141204957330605 0.0
1.2882897863927218 -0.0384800045575187 0.0
1.1683183640345298 0.2323459370810539 0.0
1.3193986607733206 0.1062781538487349 0.0
0.6862365414182598 -0.0052541660819316 0.0
1.2033394755817048 -0.0812755865830670 0.0
0.7055354395821275 0.0046766374426264 0.0
1.6563864886566821 0.0019180835308993 0.0
1.0150801080517058 0.0772662486170991 0.0
1.3489676026451201 -0.1418614468768584 0.0
1.1382036374391469 0.0015140962735699 0.0
1.4877281264652613 -0.1417615417150378 0.0
0.5441884982097496 -0.0461562354012785 0.0
1.1807206834442543 -0.0784231515167736 0.0
1.1670728053976127 -0.1308625149919880 0.0
1.2868562137058444 -0.1044367300618533 0.0
1.6374149844289851 -0.0138585216039616 0.0
1.6048695051881561 0.0503788133188900 0.0
0.8765494039126039 0.0867963863451836 0.0
1.2406945427767972 -0.0444574646447743 0.0
0.7417884522719667 0.1143208132872562 0.0
0.5925196777768283 -0.0026570260538221 0.0
0.4125629319043587 0.0215456011663021 0.0
1.4782607123953695 -0.1126447327223442 0.0
0.5492264046851030 0.1809832780620706 0.0
0.7004842676984394 -0.0056643192904927 0.0
1.5623129828176032 0.0253003726559347 0.0
1.2845091181178550 -0.0499812694385320 0.0
1.2100985762334990 -0.0406106650979785 0.0
1.5678097917153357 0.0695766489083431 0.0
1.4601463149503453 -0.0675330657449340 0.0
1.5716763876599482 0.0288505092533323 0.0
1.1840528105756485 0.0547485812977121 0.0
1.1097359499531199 -0.2625872142469992 0.0
1.2314871614151226 0.1893545230423772 0.0
1.1069813064093541 0.2434036787566376 0.0
1.0737789053881472 -0.0461732181928353 0.0
1.1845091950675821 0.0250339196325270 0.0
0.9319454090850970 0.0425133805168913 0.0
0.5783599680448279 0.1633012727396988 0.0
0.9917838509362948 -0.0116472219158324 0.0
1.4612067655673306 -0.0422759028819072 0.0
0.7658312101922410 0.0675612642665257 0.0
1.1800125103883135 0.0669648025804458 0.0
1.5047811815514363 -0.0760527965203748 0.0
0.8758855914381410 -0.0247202005945937 0.0
1.2624297156297866 0.0301215817115398 0.0
1.5258399114699879 0.0516059390141562 0.0
1.1838301771532558 -0.2092746882216389 0.0
1.3146305805850507 -0.1145700644218445 0.0
0.5065526999731303 0.1592282244077262 0.0
0.5047143803510241 0.1273927254492052 0.0
0.8396723085043949 -0.0137295731430792 0.0
1.4758132850513401 -0.0804388290136405 0.0
1.4907724890663949 -0.0935451851795853 0.0
0.5398693490754449 0.1829174430670207 0.0
0.6808291512969654 -0.0632079800449633 0.0
1.1214143794845275 0.0212953183630279 0.0
1.4707230498051087 -0.1200920741998709 0.0
0.9860468043083087 -0.0135656959054719 0.0
1.3524975626620175 0.0094393197966509 0.0
1.4140118419136420 -0.1063022615917378 0.0
0.9659530990235057 0.0081919847127141 0.0
0.8754321083837503 0.0703968011517172 0.0
1.3265446069349898 -0.0012440421060946 0.0
0.7684242789726471 -0.0259800911215588 0.0
1.5634433316360370 -0.0255226386696024 0.0
0.7657981451542809 0.0220131980994659 0.0
0.7723024864590939 -0.0298537662128564 0.0
1.2966201726813149 -0.0810418465230661 0.0
1.4181387607003988 -0.0131058996853782 0.0
0.9896278622621993 0.0116361758140278 0.0
0.5843085265271190 0.2014938264197891 0.0
0.9124786896339190 -0.0048137112706629 0.0
1.1335686629614936 -0.0569627151078436 0.0
0.8119705252974724 0.0999490800988199 0.0
1.1592382320372450 0.1580003172093967 0.0
1.0611893135172747 -0.0016120649716886 0.0
0.6812233259552776 0.0184636618720280 0.0
1.5274797986281494 -0.0212516271403637 0.0
0.9041489792292117 -0.0122165418543520 0.0
1.5508302308093402 -0.0270586857717430 0.0
0.4083175373958812 -0.0298621431046898 0.0
1.4776095396478934 -0.1728920640319559 0.0
1.6043112337680585 -0.0120780271350052 0.0
0.5331653721501032 0.1189910293658324 0.0
0.7789707359147063 -0.0246525052864803 0.0
1.5847798825960220 0.0677780965230937 0.0
0.9341724402857428 0.0960774845708619 0.0
1.5623547379728162 0.0585038197816662 0.0
0.9578341369714491 0.0015454370492385 0.0
0.7997834335676253 -0.0600429355616287 0.0
0.6678236095256033 -0.0395329161651333 0.0
1.0208747077068550 -0.0256790654626308 0.0
1.0041223455805828 0.0297812827859796 0.0
1.4548299921633123 0.0139463259514470 0.0
0.5586625844000741 0.0374219867313068 0.0
0.8830201506138236 -0.0616527605399222 0.0
0.8522761621998045 0.0503992321713310 0.0
1.4231636451613199 0.0807090419420556 0.0
0.8005504723556338 -0.2001722957543507 0.0
0.8301871436608391 -0.0258425931018469 0.0
0.5226272795658189 -0.0487239313215679 0.0
1.0198004207037048 0.0372826710883975 0.0
0.7043869423187828 0.2039016381100350 0.0
0.9034330922964027 0.0438076775841012 0.0
1.2691541114388596 -0.1105428812813284 0.0
0.7619284279049429 -0.0189135568285646 0.0
0.9010644173446654 -0.0015576282415307 0.0
0.9626653186880801 -0.0028171720898397 0.0
0.7926459451784256 -0.0314256569813629 0.0
0.7697514749659582 -0.0441918133070456 0.0
1.4952065197584161 0.0251948377295656 0.0
0.8008498227148646 -0.0312715906733405 0.0
1.0391195603929451 -0.0933299568654964 0.0
0.8394185053964364 0.0547886075402039 0.0
1.2902902602036526 -0.0244606451416200 0.0
0.6318242946408842 -0.0199463551963370 0.0
0.3715058216288324 0.0046543076369398 0.0
1.1978526915942576 -0.1205422913451075 0.0
0.8370092581307965 0.1031405453771851 0.0
0.7951706507513070 -0.0163599075449574 0.0
0.9608724722402689 0.0558198678862675 0.0
1.3939028970439018 -0.0349843661770707 0.0
0.6540773561923190 -0.0214691878747830 0.0
1.2170056640807034 0.1881368592749429 0.0
1.5040676961139909 0.0072702171675978 0.0
0.7108389610837056 -0.0127753446191621 0.0
1.1435047590272283 0.0043184267678734 0.0
1.2836734496027093 -0.0763733774342679 0.0
1.0627481680579502 -0.0580079130327300 0.0
1.4741559832437114 -0.1323603331609601 0.0
0.4517163174699604 0.2200477829482413 0.0
1.7303977705781541 0.0213556257738261 0.0
1.3934717268173491 0.0427041138960059 0.0
0.5545706416816275 0.0509319274094613 0.0
1.4877879093936379 -0.1613870346973297 0.0
1.5181146062105533 -0.0871708990502305 0.0
0.6324214659027275 -0.0078486250586094 0.0
1.0266618229558577 -0.0219338744661575 0.0
0.6730581909399679 -0.0388233009559545 0.0
0.9512651879235192 -0.0773483233933992 0.0
0.7842169963580344 -0.0530655850843146 0.0
0.3843117368355815 0.2205775179086079 0.0
1.1106726879938631 0.2626717941094614 0.0
1.5950695128253070 0.0092986083705069 0.0
0.5770735167362478 0.2229710220786658 0.0
1.5778299790183998 -0.0637531077023241 0.0
1.7460974140063303 0.0987782207682158 0.0
0.5316229451244864 0.2202012084345010 0.0
1.4841761514002578 0.0476057840983073 0.0
1.4153510650504382 -0.1357550429530981 0.0
0.9232454106194927 0.2513930926238481 0.0
1.2867120749158365 -0.0210870098966878 0.0
1.3173275464279695 0.0226114926816799 0.0
0.7802945103339601 0.0898281300167710 0.0
1.3377393734951415 -0.1176533575112321 0.0
0.6953953702105774 -0.0565969119530883 0.0
0.5648278649230487 0.2056618383021347 0.0
0.3932000615057248 0.0188730887186304 0.0
1.1905642317197809 -0.0131847557622765 0.0
0.8833090198151154 -0.2764768028221475 0.0
1.4223228664935541 0.1020559178994075 0.0
1.2974700977159959 -0.1138241421301596 0.0
0.5593076279027006 -0.0119794938061304 0.0
0.5794736428389087 0.0492033013467135 0.0
0.6990641096369327 0.0180798339586449 0.0
1.1799627444976524 -0.0073253173132284 0.0
1.2017769300013426 0.3175291646880671 0.0
0.5611717245037546 -0.0323888771977541 0.0
1.1118183085167881 -0.0712446824634037 0.0
0.5923423291453210 0.0403950306108871 0.0
1.5694418352178277 0.0405951515696752 0.0
0.4487688584962765 0.2553932463785668 0.0
0.7391000414216733 -0.1225833139914559 0.0
1.5422727592304390 -0.0451656318827228 0.0
1.2514495015862788 0.0394461331915468 0.0
1.5415509794653479 -0.1425163240728963 0.0
0.6831442694186037 0.0059999649856577 0.0
0.8722516973746292 -0.0342604493895737 0.0
1.4596805292027684 -0.1036509268168730 0.0
1.4481686197903132 -0.0961579260503330 0.0
1.0283234110820594 0.0668553171610100 0.0
1.4507872260917614 0.0380653864138227 0.0
1.3518403650022426 -0.0618454222926075 0.0
1.2844262727510687 0.1725388903900641 0.0
0.7984873099266663 -0.0069484298846929 0.0
0.7446517418050209 -0.0212825660274991 0.0
0.6770561627821921 -0.0462781753364035 0.0
1.3221509494940227 -0.0639104881289923 0.0
1.3345685225343631 -0.0915504922026945 0.0
1.1602826661362804 0.1237791190991018 0.0
0.3223603892884757 0.0325370334596691 0.0
1.4391752550849637 -0.0914203339452265 0.0
0.2907578259267179 0.1109908259707255 0.0
0.6919534420582889 0.1211012840568808 0.0
1.0343183586958176 0.0548868016240133 0.0
0.5382034692022148 -0.1143917215939121 0.0
1.1457153033694529 -0.3183612505318590 0.0
1.4163092168608125 -0.0727735870295815 0.0
1.6093630732256048 -0.0188909415160502 0.0
0.7315767462205771 0.1116866150220439 0.0
1.5205466195225075 -0.0625669219181136 0.0
0.9324411629887315 -0.0331126231839388 0.0
1.4211573002547602 -0.0652749352291911 0.0
0.9340281958780294 -0.0254960441993252 0.0
0.4752820770587039 0.2179309394102502 0.0
0.9082758610926762 -0.0555206519262840 0.0
1.0262812203130567 -0.0642716961942271 0.0
1.5686493556967345 -0.0454699385840965 0.0