# vtk DataFile Version 3.0
LucasCarvalhoTCC Results
ASCII

DATASET POLYDATA
FIELD FieldData 1
TIME 1 1 double
3.8000000000000003

POINTS 600 float
0.0 2.0 0.0
0.25 1.989125 0.0
0.5 1.958 0.0
0.75 1.908875 0.0
1.0 1.844 0.0
1.25 1.765625 0.0
1.5 1.676 0.0
1.75 1.577375 0.0
2.0 1.472 0.0
2.25 1.362125 0.0
2.5 1.25 0.0
2.75 1.137875 0.0
3.0 1.028 0.0
3.25 0.922625 0.0
3.5 0.8240000000000001 0.0
3.75 0.734375 0.0
4.0 0.6560000000000001 0.0
4.25 0.5911249999999999 0.0
4.5 0.542 0.0
4.75 0.510875 0.0
5.0 0.5 0.0
5.25 0.5036250000000004 0.0
5.5 0.5140000000000002 0.0
5.75 0.5303750000000003 0.0
6.0 0.5519999999999996 0.0
6.25 0.578125 0.0
6.5 0.6080000000000005 0.0
6.75 0.6408749999999999 0.0
7.0 0.6760000000000002 0.0
7.25 0.7126249999999992 0.0
7.5 0.75 0.0
7.75 0.7873750000000004 0.0
8.0 0.8239999999999994 0.0
8.25 0.8591250000000001 0.0
8.5 0.8919999999999999 0.0
8.75 0.921875 0.0
9.0 0.9479999999999991 0.0
9.25 0.9696250000000011 0.0
9.5 0.9859999999999984 0.0
9.75 0.9963750000000013 0.0
10.0 1.0 0.0
0.0 0.0 0.0
10.0 0.0 0.0
0.124999999999674 1.994562500000014 0.0
0.3749999999999947 1.973562500000001 0.0
0.6249999999999918 1.933437500000002 0.0
0.874999999999979 1.876437500000006 0.0
1.124999999999963 1.804812500000012 0.0
1.374999999999944 1.72081250000002 0.0
1.624999999999985 1.626687500000006 0.0
1.874999999999953 1.52468750000002 0.0
2.124999999999936 1.417062500000028 0.0
2.374999999999952 1.306062500000022 0.0
2.624999999999919 1.193937500000036 0.0
2.87499999999992 1.082937500000035 0.0
3.124999999999946 0.9753125000000229 0.0
3.374999999999948 0.8733125000000204 0.0
3.624999999999972 0.77918750000001 0.0
3.874999999999963 0.6951875000000118 0.0
4.124999999999968 0.6235625000000082 0.0
4.394409538298571 0.5627485257243309 0.0
4.583333333333322 0.5316250000000015 0.0
4.666666666666668 0.5212499999999999 0.0
4.833333333333334 0.50725 0.0
4.916666666666667 0.503625 0.0
5.083333333333334 0.5012083333333335 0.0
5.166666666666666 0.502416666666667 0.0
5.333333333333334 0.5070833333333337 0.0
5.416666666666667 0.510541666666667 0.0
5.583333333333334 0.5194583333333336 0.0
5.666666666666666 0.5249166666666669 0.0
5.833333333333338 0.5375833333333339 0.0
5.916666666666661 0.544791666666666 0.0
6.105781577147724 0.5630541748119369 0.0
6.375 0.5930625000000003 0.0
6.624999999999988 0.6244374999999988 0.0
6.874999999999994 0.6584374999999991 0.0
7.125 0.6943124999999997 0.0
7.375 0.7313124999999996 0.0
7.624999999999994 0.7686874999999992 0.0
7.875 0.8056874999999999 0.0
8.125 0.8415624999999998 0.0
8.374999999999991 0.8755624999999989 0.0
8.624999999999995 0.9069374999999993 0.0
8.874999999999995 0.9349374999999991 0.0
9.125 0.9588125000000001 0.0
9.375 0.9778124999999998 0.0
9.625 0.9911874999999999 0.0
9.875 0.9981875000000007 0.0
0.0 1.799999999999167 0.0
0.0 1.6 0.0
0.0 1.400000000001387 0.0
0.0 1.200000000002774 0.0
0.0 1.000000000004117 0.0
0.0 0.8000000000033287 0.0
0.0 0.6000000000024965 0.0
0.0 0.4000000000016644 0.0
0.0 0.200000000000832 0.0
0.199999999999856 0.0 0.0
0.3999999999996677 0.0 0.0
0.5999999999994683 0.0 0.0
0.7999999999993286 0.0 0.0
0.9999999999991888 0.0 0.0
1.199999999999033 0.0 0.0
1.399999999998576 0.0 0.0
1.599999999997992 0.0 0.0
1.799999999997408 0.0 0.0
1.999999999996825 0.0 0.0
2.199999999996241 0.0 0.0
2.399999999995657 0.0 0.0
2.599999999995073 0.0 0.0
2.79999999999449 0.0 0.0
2.999999999993906 0.0 0.0
3.199999999993322 0.0 0.0
3.399999999992738 0.0 0.0
3.599999999992154 0.0 0.0
3.799999999991571 0.0 0.0
3.999999999991022 0.0 0.0
4.199999999991187 0.0 0.0
4.399999999991491 0.0 0.0
4.599999999991795 0.0 0.0
4.799999999992099 0.0 0.0
4.999999999992403 0.0 0.0
5.199999999992706 0.0 0.0
5.39999999999301 0.0 0.0
5.599999999993313 0.0 0.0
5.799999999993618 0.0 0.0
5.999999999993922 0.0 0.0
6.199999999994227 0.0 0.0
6.39999999999453 0.0 0.0
6.599999999994833 0.0 0.0
6.799999999995138 0.0 0.0
6.999999999995442 0.0 0.0
7.199999999995747 0.0 0.0
7.39999999999605 0.0 0.0
7.599999999996353 0.0 0.0
7.799999999996658 0.0 0.0
7.999999999996962 0.0 0.0
8.199999999997265 0.0 0.0
8.399999999997569 0.0 0.0
8.599999999997873 0.0 0.0
8.799999999998176 0.0 0.0
8.99999999999848 0.0 0.0
9.199999999998786 0.0 0.0
9.399999999999089 0.0 0.0
9.599999999999392 0.0 0.0
9.799999999999697 0.0 0.0
10.0 0.1999999999995579 0.0
10.0 0.3999999999989749 0.0
10.0 0.5999999999989468 0.0
10.0 0.7999999999994734 0.0
0.913963423524136 0.9126937851647636 0.0
1.629657910441747 0.8286436141773268 0.0
2.300136613917738 0.6369890708869279 0.0
0.5989085226155619 1.38125543468559 0.0
1.274155622640533 1.242773398230304 0.0
2.860215383945273 0.5217401976756945 0.0
9.469653920408135 0.4910067017840992 0.0
8.984679546317787 0.4696119782494839 0.0
8.499397693277212 0.4463630640980716 0.0
3.270918412356206 0.4522692359356972 0.0
1.223039611612243 0.5146439900227544 0.0
2.024812732135938 1.00818256045515 0.0
0.5365376864627701 0.5434316309416508 0.0
8.114834335444021 0.4602948767329583 0.0
7.742261962994204 0.4117304941858466 0.0
0.9443382341364558 1.456061359265878 0.0
1.665275621558886 1.201744468407863 0.0
1.89566112584099 0.4397284596316843 0.0
3.691409759982064 0.3560936332572802 0.0
7.368457390036411 0.3792926046732459 0.0
0.5071184951703254 0.9340893429149442 0.0
0.3822273842356539 1.647625881691675 0.0
5.916285335387544 0.2564903116750689 0.0
5.628860531758535 0.2582323053999509 0.0
5.380471017960128 0.2502349014663197 0.0
5.139244585769944 0.2549145445969738 0.0
2.686085237972266 0.8031095648160084 0.0
4.507599040026292 0.263176944655695 0.0
6.983755234374982 0.3380000000001097 0.0
9.720925955181613 0.6635813325201156 0.0
1.288006195687152 0.8759679848503046 0.0
9.20556379558699 0.6923669083350594 0.0
2.319913492084225 0.9512500928262699 0.0
8.73203612228155 0.6151508464420534 0.0
4.868679481352366 0.2526598053940744 0.0
4.10358044398202 0.3012437332986487 0.0
6.602422946953217 0.3126221952225479 0.0
2.534693527909069 0.3583319619586092 0.0
6.193332317503376 0.2894654215336858 0.0
0.8804088217382579 0.3735513844182569 0.0
0.7663303172393539 1.679065267574722 0.0
3.081211528283084 0.6968015573146217 0.0
1.241762689885858 1.521465072418641 0.0
1.573472750763779 0.3374689934575129 0.0
1.475107933015155 1.403918544935278 0.0
0.8212739503602162 1.195790902469637 0.0
4.681049549092561 0.3558177014380842 0.0
9.439519900118443 0.7366884444350511 0.0
2.201393787062887 0.3261463175998884 0.0
2.015369189818184 0.7109460688851087 0.0
8.32727069655695 0.6360373328685593 0.0
8.961488632119996 0.7119124617705204 0.0
9.22773266034565 0.3109430611770705 0.0
0.3000513553073295 1.178778127105867 0.0
1.91985473842554 1.233084801189704 0.0
8.749827252515535 0.3049638092131281 0.0
3.50551132590258 0.5576614504134195 0.0
3.040500962406976 0.290446660105673 0.0
9.72097519930939 0.3037986529514364 0.0
0.3073166349239687 0.3249300260882615 0.0
0.2948185331392187 0.7229775107826154 0.0
1.46029425821417 1.06552904833304 0.0
0.8085718129253527 0.673531272847494 0.0
7.913326191751847 0.5738936378911789 0.0
8.295349499871781 0.2556682497524391 0.0
4.31359646688283 0.3665214152100782 0.0
7.542842082022704 0.5249918217576657 0.0
1.058357552227335 1.116692590939024 0.0
2.214297272750292 1.159898327391242 0.0
2.901187336648686 0.8282146771898153 0.0
3.933498145061447 0.4325241689837319 0.0
7.956006969037984 0.2667411694088205 0.0
7.172393179434975 0.4835114022190097 0.0
1.440243631802057 0.6689433452646625 0.0
3.458541882144431 0.2581755850286561 0.0
5.791617360065465 0.3978542524532168 0.0
5.981529865241493 0.3900667299390458 0.0
1.083462543944253 0.7203994120564634 0.0
1.78518471978951 1.008552691762234 0.0
2.77360122246243 0.2689852172070111 0.0
2.565134389978369 0.9928826788184764 0.0
2.543046005790158 0.6034091352176242 0.0
3.293038780485421 0.6769811703257343 0.0
6.790787388653942 0.4353933509634578 0.0
1.140204059461831 0.2538227257007896 0.0
0.6242104065654487 0.2738473600765566 0.0
6.393430278703709 0.3766405270445946 0.0
8.533059390324546 0.6950580701614406 0.0
0.9961263693263854 1.612128843772703 0.0
1.697598586607002 0.5781950992180334 0.0
8.087930458724863 0.6517815437732153 0.0
0.2748906317360928 1.770749713716887 0.0
0.5785110002099415 1.757022387413085 0.0
5.550004842562332 0.3852675728674634 0.0
4.948161884155141 0.3480305424737933 0.0
1.741244734175577 1.381979611033466 0.0
5.312408927381063 0.3621256994047111 0.0
0.2492139438157334 1.453132031680879 0.0
7.597720022451821 0.2370268512906596 0.0
9.471021754366422 0.2472916581956264 0.0
7.714083843672875 0.600212897672991 0.0
4.520815862079482 0.3946753115680038 0.0
2.47356661122767 0.8007389356831706 0.0
7.325494311403363 0.528948935030723 0.0
7.147005275585743 0.2709670165999667 0.0
3.758046446289313 0.5474783841545341 0.0
3.893717059615281 0.1664960777568404 0.0
2.152835534199412 0.8614028741175742 0.0
8.995993312441625 0.1933410497113667 0.0
1.077676137392001 1.368204555688504 0.0
0.2429906229817933 0.9816066505657851 0.0
0.6261765586985547 1.180540007244081 0.0
9.81151801018651 0.816223424030724 0.0
0.6725442903064565 0.8425384371773644 0.0
1.74584086891446 0.2617492458514414 0.0
0.7667820686164357 1.440842670056678 0.0
8.539133693395232 0.1910926418035274 0.0
5.129145653242096 0.3632579123815574 0.0
6.816538849831732 0.2013284992826486 0.0
2.108503954619862 0.5359795950847274 0.0
6.933669557130528 0.4980836483776163 0.0
3.071406705674529 0.4919421055852253 0.0
2.001240035874449 0.2292738462614773 0.0
4.782473531509697 0.4061213127162872 0.0
0.5734126310178208 1.536352720889636 0.0
9.796714529589472 0.4898048068674991 0.0
5.678359041645315 0.373719883316694 0.0
5.427661572827738 0.3646059266294788 0.0
2.075214597532947 1.226969224366912 0.0
3.251521478555126 0.2637671977660283 0.0
2.722180837291864 0.9710783334409533 0.0
9.333262390342384 0.8479609887828539 0.0
1.367251332770493 0.2041553944563636 0.0
1.870721433742522 0.7905989208842599 0.0
1.387906762913351 1.555741687747287 0.0
9.559918612869 0.8444052974080497 0.0
9.286795039366257 0.4698254290795815 0.0
[...]
POINT_DATA 600

VECTORS Velocity float
0.0000000000000000 0.0000000000000000 0.0
0.0000000000000000 0.0000000000000000 0.0
0.0000000000000000 0.0000000000000000 0.0
0.0000000000000000 0.0000000000000000 0.0
0.0000000000000000 0.0000000000000000 0.0
0.0000000000000000 0.0000000000000000 0.0
0.0000000000000000 0.0000000000000000 0.0
0.0000000000000000 0.0000000000000000 0.0
0.0000000000000000 0.0000000000000000 0.0
0.0000000000000000 0.0000000000000000 0.0
0.0000000000000000 0.0000000000000000 0.0
0.0000000000000000 0.0000000000000000 0.0
0.0000000000000000 0.0000000000000000 0.0
0.0000000000000000 0.0000000000000000 0.0
0.0000000000000000 0.0000000000000000 0.0
0.0000000000000000 0.0000000000000000 0.0
0.0000000000000000 0.0000000000000000 0.0
0.0000000000000000 0.0000000000000000 0.0
0.0000000000000000 0.0000000000000000 0.0
0.0000000000000000 0.0000000000000000 0.0
0.0000000000000000 0.0000000000000000 0.0
0.0000000000000000 0.0000000000000000 0.0
0.0000000000000000 0.0000000000000000 0.0
0.0000000000000000 0.0000000000000000 0.0
0.0000000000000000 0.0000000000000000 0.0
0.0000000000000000 0.0000000000000000 0.0
0.0000000000000000 0.0000000000000000 0.0
0.0000000000000000 0.0000000000000000 0.0
0.0000000000000000 0.0000000000000000 0.0
0.0000000000000000 0.0000000000000000 0.0
0.0000000000000000 0.0000000000000000 0.0
0.0000000000000000 0.0000000000000000 0.0
0.0000000000000000 0.0000000000000000 0.0
0.0000000000000000 0.0000000000000000 0.0
0.0000000000000000 0.0000000000000000 0.0
0.0000000000000000 0.0000000000000000 0.0
0.0000000000000000 0.0000000000000000 0.0
0.0000000000000000 0.0000000000000000 0.0
0.0000000000000000 0.0000000000000000 0.0
0.0000000000000000 0.0000000000000000 0.0
0.0000000000000000 0.0000000000000000 0.0
0.0000000000000000 0.0000000000000000 0.0
0.8242080207590583 -0.1316456310590376 0.0
0.0000000000000000 0.0000000000000000 0.0
0.0000000000000000 0.0000000000000000 0.0
0.0000000000000000 0.0000000000000000 0.0
0.0000000000000000 0.0000000000000000 0.0
0.0000000000000000 0.0000000000000000 0.0
0.0000000000000000 0.0000000000000000 0.0
0.0000000000000000 0.0000000000000000 0.0
0.0000000000000000 0.0000000000000000 0.0
0.0000000000000000 0.0000000000000000 0.0
0.0000000000000000 0.0000000000000000 0.0
0.0000000000000000 0.0000000000000000 0.0
0.0000000000000000 0.0000000000000000 0.0
0.0000000000000000 0.0000000000000000 0.0
0.0000000000000000 0.0000000000000000 0.0
0.0000000000000000 0.0000000000000000 0.0
0.0000000000000000 0.0000000000000000 0.0
0.0000000000000000 0.0000000000000000 0.0
0.0000000000000000 0.0000000000000000 0.0
0.0000000000000000 0.0000000000000000 0.0
0.0000000000000000 0.0000000000000000 0.0
0.0000000000000000 0.0000000000000000 0.0
0.0000000000000000 0.0000000000000000 0.0
0.0000000000000000 0.0000000000000000 0.0
0.0000000000000000 0.0000000000000000 0.0
0.0000000000000000 0.0000000000000000 0.0
0.0000000000000000 0.0000000000000000 0.0
0.0000000000000000 0.0000000000000000 0.0
0.0000000000000000 0.0000000000000000 0.0
0.0000000000000000 0.0000000000000000 0.0
0.0000000000000000 0.0000000000000000 0.0
0.0000000000000000 0.0000000000000000 0.0
0.0000000000000000 0.0000000000000000 0.0
0.0000000000000000 0.0000000000000000 0.0
0.0000000000000000 0.0000000000000000 0.0
0.0000000000000000 0.0000000000000000 0.0
0.0000000000000000 0.0000000000000000 0.0
0.0000000000000000 0.0000000000000000 0.0
0.0000000000000000 0.0000000000000000 0.0
0.0000000000000000 0.0000000000000000 0.0
0.0000000000000000 0.0000000000000000 0.0
0.0000000000000000 0.0000000000000000 0.0
0.0000000000000000 0.0000000000000000 0.0
0.0000000000000000 0.0000000000000000 0.0
0.0000000000000000 0.0000000000000000 0.0
0.0000000000000000 0.0000000000000000 0.0
0.0000000000000000 0.0000000000000000 0.0
1.0000000000000000 0.0000000000000000 0.0
1.0000000000000000 0.0000000000000000 0.0
1.0000000000000000 0.0000000000000000 0.0
1.0000000000000000 0.0000000000000000 0.0
1.0000000000000000 0.0000000000000000 0.0
1.0000000000000000 0.0000000000000000 0.0
1.0000000000000000 0.0000000000000000 0.0
1.0000000000000000 0.0000000000000000 0.0
1.0000000000000000 0.0000000000000000 0.0
0.0000000000000000 0.0000000000000000 0.0
0.0000000000000000 0.0000000000000000 0.0
0.0000000000000000 0.0000000000000000 0.0
0.0000000000000000 0.0000000000000000 0.0
0.0000000000000000 0.0000000000000000 0.0
0.0000000000000000 0.0000000000000000 0.0
0.0000000000000000 0.0000000000000000 0.0
0.0000000000000000 0.0000000000000000 0.0
0.0000000000000000 0.0000000000000000 0.0
0.0000000000000000 0.0000000000000000 0.0
0.0000000000000000 0.0000000000000000 0.0
0.0000000000000000 0.0000000000000000 0.0
0.0000000000000000 0.0000000000000000 0.0
0.0000000000000000 0.0000000000000000 0.0
0.0000000000000000 0.0000000000000000 0.0
0.0000000000000000 0.0000000000000000 0.0
0.0000000000000000 0.0000000000000000 0.0
0.0000000000000000 0.0000000000000000 0.0
0.0000000000000000 0.0000000000000000 0.0
0.0000000000000000 0.0000000000000000 0.0
0.0000000000000000 0.0000000000000000 0.0
0.0000000000000000 0.0000000000000000 0.0
0.0000000000000000 0.0000000000000000 0.0
0.0000000000000000 0.0000000000000000 0.0
0.0000000000000000 0.0000000000000000 0.0
0.0000000000000000 0.0000000000000000 0.0
0.0000000000000000 0.0000000000000000 0.0
0.0000000000000000 0.0000000000000000 0.0
0.0000000000000000 0.0000000000000000 0.0
0.0000000000000000 0.0000000000000000 0.0
0.0000000000000000 0.0000000000000000 0.0
0.0000000000000000 0.0000000000000000 0.0
0.0000000000000000 0.0000000000000000 0.0
0.0000000000000000 0.0000000000000000 0.0
0.0000000000000000 0.0000000000000000 0.0
0.0000000000000000 0.0000000000000000 0.0
0.0000000000000000 0.0000000000000000 0.0
0.0000000000000000 0.0000000000000000 0.0
0.0000000000000000 0.0000000000000000 0.0
0.0000000000000000 0.0000000000000000 0.0
0.0000000000000000 0.0000000000000000 0.0
0.0000000000000000 0.0000000000000000 0.0
0.0000000000000000 0.0000000000000000 0.0
0.0000000000000000 0.0000000000000000 0.0
0.0000000000000000 0.0000000000000000 0.0
0.0000000000000000 0.0000000000000000 0.0
0.0000000000000000 0.0000000000000000 0.0
0.0000000000000000 0.0000000000000000 0.0
0.0000000000000000 0.0000000000000000 0.0
1.0711276937623904 -0.4642009945050863 0.0
0.9659822262526493 -0.1984833250081274 0.0
0.9840822583258887 -0.0313839234903600 0.0
1.0703976928436387 0.3853485522215898 0.0
1.4162356158388139 0.0072459164503660 0.0
1.5016639558336353 -0.1023735460729285 0.0
1.4762167919325133 -0.1928197748610032 0.0
1.2346054998413896 -0.1297674305733990 0.0
1.3377890927485319 -0.0713336718169771 0.0
1.5338550050200537 -0.1173588440212609 0.0
1.5905151877703172 -0.0305080439078336 0.0
1.5334463740744184 0.0207228808936879 0.0
1.5837647882248251 0.0986908939201962 0.0
1.5108342360497156 -0.1190771690500829 0.0
1.1680186489808024 0.0049292258362223 0.0
1.3668925515703820 -0.0951676167681781 0.0
1.2329324651748201 0.2560697518726129 0.0
1.5844697543600759 0.0725766915698638 0.0
1.5632313625375236 0.0077551194362955 0.0
1.1293617778563563 -0.0401293508632296 0.0
1.2478622851284906 -0.0129686513719546 0.0
1.1347489668823869 -0.0769839643278443 0.0
1.5270418958790331 -0.0568409382829178 0.0
1.5804146772129699 0.0552538196888299 0.0
1.2364641327960506 0.1003801180144354 0.0
1.1198823225063594 -0.2601546063238521 0.0
1.4955419742741503 0.0144064162218256 0.0
1.4954819862379594 -0.0177015146653232 0.0
1.5251461087971898 0.0356314527391188 0.0
1.5471059117624886 0.0132601100956335 0.0
1.3232855785771527 -0.1127283672759519 0.0
1.4872491687418805 0.0099334055181762 0.0
1.6540825449963994 0.0258653067578817 0.0
1.3615894606111381 0.1307356987975189 0.0
1.4979544980879684 -0.0477943894555124 0.0
1.3843399949899289 -0.0479891206383070 0.0
1.3407203534171190 -0.1374105004997294 0.0
1.5117884467414162 0.0932097249778231 0.0
1.5117708973587642 0.0024022492613112 0.0
1.6249136668046533 -0.1066369767936970 0.0
1.6830009870278226 -0.0380692993758935 0.0
1.1996376343403081 -0.1059646293392762 0.0
1.5893039007625724 -0.0203130864811118 0.0
0.9487264762398686 0.0700040841946352 0.0
0.8263106815333842 0.0395780928468239 0.0
1.3816847095811733 -0.0439398322832382 0.0
0.8444640246011459 0.0477071315010638 0.0
0.8307623132455703 -0.0548230910754799 0.0
0.9613712367342298 0.0624306675539431 0.0
1.3566281956115296 -0.0595131945610958 0.0
1.8005046920876022 -0.1359291954330161 0.0
1.2810421072390998 0.0006258078990674 0.0
0.9700014074385015 -0.0730119158013783 0.0
1.4776612990656477 -0.1244770737773375 0.0
1.3649365984482869 0.0418817532683302 0.0
1.3294517993591282 0.0010144506856994 0.0
1.2148571803961878 -0.0202960089581720 0.0
1.0924129576434602 -0.0911253915328195 0.0
1.0428179852626929 0.0348444913923005 0.0
1.2474830047133136 0.0250087883609998 0.0
1.4512407993522667 -0.0618596044575694 0.0
1.2281688965199380 -0.0304783031001650 0.0
1.2019074210003589 -0.2100384939942244 0.0
1.1206102070061073 0.3498650261941478 0.0
1.1046994115622877 0.2139730671140536 0.0
1.4775612841349277 -0.0818021965490740 0.0
1.3149897076269101 0.1186809515293196 0.0
1.3993403353277587 0.0530763852043555 0.0
1.2320160891662166 0.0225955704089669 0.0
1.7382825257735168 0.0681690016074972 0.0
1.4847144836767618 -0.0106703380495823 0.0
1.4316657938016508 -0.0595881316692114 0.0
0.8987296275927588 0.0285991041904207 0.0
1.0936497770872962 -0.0104763024725614 0.0
1.6053696447115138 -0.1344470883643311 0.0
1.3119654838406469 0.0488797503016720 0.0
1.4483602383966452 0.0722641898989583 0.0
1.4108736887757123 -0.0644057875253691 0.0
1.2406857292129096 -0.0434066075432349 0.0
1.5394765349059714 -0.0425814413325089 0.0
1.6095360871203914 0.0403262942583637 0.0
1.4139742366578818 0.0260559756775424 0.0
1.4441980978206359 -0.0920132250231158 0.0
1.0754860657979675 -0.0962137420144594 0.0
0.9662140927822566 0.0154908637204864 0.0
1.5247550266069678 -0.1858965740160036 0.0
1.2376426649731014 -0.0961963593048757 0.0
1.5845251342726741 0.0135191442261267 0.0
0.5546205527221600 0.0305960827178109 0.0
0.8430165809676783 0.1082953422683510 0.0
1.6626006897143450 0.0133738991201644 0.0
1.2484995594219002 -0.0061631297149223 0.0
0.8284803351613806 0.0421602985984664 0.0
1.3277309617656055 -0.1131773186201359 0.0
1.1906917423523922 0.0056076660242473 0.0
1.1000258746707530 -0.2856344732447776 0.0
0.7903754388378246 0.0371340661266776 0.0
1.5948816788333862 0.0114928102656043 0.0
1.6646676294914169 -0.0091748331189908 0.0
0.8085613788083627 0.1165970407603534 0.0
1.6080634324937668 0.0561315667985492 0.0
1.0881763376762397 -0.2395750633729781 0.0
1.2206306894707653 0.0321599334770869 0.0
1.0950141870804855 -0.0425340613728039 0.0
1.2306508872436208 0.0138919586865005 0.0
1.6700418545436801 -0.0216747110891750 0.0
1.4569524891337695 -0.2147214952221798 0.0
1.4486692603909164 0.0459788661932200 0.0
1.4479755818683422 0.0891726456119513 0.0
1.3495030995713921 -0.0520857038496128 0.0
0.7452019581667938 -0.0909435314858273 0.0
1.4695423954888378 -0.1582602211246201 0.0
0.6531599536976628 -0.0045266940038542 0.0
1.2227446757850129 -0.0501816553830355 0.0
1.0603061390374304 0.0133294359310474 0.0
1.2922047288904279 -0.0400466491504912 0.0
1.1684214414456284 0.2323190184486423 0.0
1.3242100408091793 0.1077748611545737 0.0
0.6816293582948703 -0.0062528259334856 0.0
1.2007565746206348 -0.0818775668348404 0.0
0.7054696124137647 0.0047200142895351 0.0
1.6564078330386349 0.0019186951776797 0.0
1.0150817464319450 0.0772662088824630 0.0
1.3498065856780423 -0.1438955872987908 0.0
1.1382077597872238 0.0015240049553430 0.0
1.4879212561683195 -0.1416965170287966 0.0
0.5417613204807790 -0.0465551773159669 0.0
1.1807279747267112 -0.0784214129975471 0.0
1.1638549645461629 -0.1328432373241921 0.0
1.2868819758570089 -0.1046194236784685 0.0
1.6374448950151710 -0.0138538827676722 0.0
1.6048876420410183 0.0503871439592509 0.0
0.8735758667348226 0.0883203036045226 0.0
1.2406763303953103 -0.0444199885340831 0.0
0.7412754009671738 0.1148898046412004 0.0
0.5925805665161163 -0.0026397268486809 0.0
0.4085755688666260 0.0213344792558968 0.0
1.4842399613643538 -0.1147010612939546 0.0
0.5458994226967211 0.1822078095607532 0.0
0.7005679159813014 -0.0056591305433202 0.0
1.5624217753567726 0.0253343639044056 0.0
1.2838076254576869 -0.0493764528386807 0.0
1.2103173530072719 -0.0406197246741374 0.0
1.5678183027286900 0.0696935412026934 0.0
1.4668206184624568 -0.0670119599887811 0.0
1.5716835842361523 0.0288401984240082 0.0
1.1842653458718893 0.0547656446212311 0.0
1.1090745799407373 -0.2638673833463295 0.0
1.2332758265227235 0.1913196630924524 0.0
1.1068032611892711 0.2442952157200066 0.0
1.0737772534730066 -0.0461726605078887 0.0
1.1845068673216899 0.0250285064837045 0.0
0.9319475020043740 0.0425169779445155 0.0
0.5767335168654371 0.1643307276461738 0.0
0.9917855444538405 -0.0116468787704053 0.0
1.4698190221229175 -0.0423907406120697 0.0
0.7658259957347400 0.0675623703810083 0.0
1.1768755390417471 0.0684751249142356 0.0
1.5126105211346790 -0.0773706938943435 0.0
0.8744986022225255 -0.0252974976526669 0.0
1.2624435840209252 0.0300405636682012 0.0
1.5258207108121855 0.0517167392959284 0.0
1.1824811353153026 -0.2125237129143310 0.0
1.3149729227357747 -0.1154646207244682 0.0
0.5030908384394439 0.1604818349073770 0.0
0.5011705188207685 0.1282839892900804 0.0
0.8396631331174589 -0.0137365849671831 0.0
1.4761137691080828 -0.0803393352024925 0.0
1.4975976844022791 -0.0950707640192984 0.0
0.5370209685727768 0.1842476495845726 0.0
0.6791487629095103 -0.0638076715744215 0.0
1.1214138460800618 0.0212994001311405 0.0
1.4714997430612151 -0.1210291876800921 0.0
0.9861871590702546 -0.0135212259341051 0.0
1.3590591899514348 0.0093320083046106 0.0
1.4175719036644863 -0.1089117106630861 0.0
0.9659827412465176 0.0081897395443291 0.0
0.8754951107277350 0.0703689149772043 0.0
1.3265456094052919 -0.0012501547227814 0.0
0.7683542011631660 -0.0259676494194550 0.0
1.5634305574804537 -0.0255177764056202 0.0
0.7657770055534544 0.0220171280851205 0.0
0.7722576081166662 -0.0298674202117274 0.0
1.2968101849581628 -0.0811839518970557 0.0
1.4223300741983420 -0.0132754796813400 0.0
0.9895751818638366 0.0116632170215400 0.0
0.5815999184670929 0.2025730299656109 0.0
0.9124831891886424 -0.0048140168567275 0.0
1.1300482612920311 -0.0577635529567855 0.0
0.8117159699031349 0.1002081923672147 0.0
1.1572015048672084 0.1601028576765257 0.0
1.0573600425882268 0.0005143300554233 0.0
0.6812829053221189 0.0184699673023427 0.0
1.5277629061386278 -0.0212424410883770 0.0
0.9041220542177680 -0.0122201642122809 0.0
1.5510163152906522 -0.0271959425372773 0.0
0.4050514374736240 -0.0293025399382917 0.0
1.4801901527150434 -0.1731978016943402 0.0
1.6046773577569213 -0.0120715430063310 0.0
0.5299441686906123 0.1191676755102335 0.0
0.7789550337369350 -0.0246515744772563 0.0
1.5848217325885885 0.0677370928978030 0.0
0.9340889259845665 0.0962733722576583 0.0
1.5623350952220916 0.0586422784711430 0.0
0.9526057309419332 0.0035158158404364 0.0
0.7997271737710130 -0.0600790271482524 0.0
0.6671338703598885 -0.0400512804513240 0.0
1.0208957728790979 -0.0256776244316024 0.0
1.0041458001081176 0.0297825361595187 0.0
1.4548170343540072 0.0139527934351051 0.0
0.5587023096536436 0.0374232372513110 0.0
0.8830892301965086 -0.0616566531775680 0.0
0.8522861636136150 0.0503844312929040 0.0
1.4231039561787930 0.0807670303586110 0.0
0.8004427208845545 -0.2002380699984042 0.0
0.8302064860695743 -0.0258284784269318 0.0
0.5226817333847948 -0.0487215416850344 0.0
1.0159552211143699 0.0388685470933008 0.0
0.7032427221846893 0.2047206027398576 0.0
0.9034456362365618 0.0438116424634540 0.0
1.2695184742600325 -0.1093836598968867 0.0
0.7618332032219236 -0.0189311717501529 0.0
0.9010559313101393 -0.0015485045668038 0.0
0.9574787429564068 -0.0018902725891423 0.0
0.7926732267684475 -0.0314510053102823 0.0
0.7697919766787443 -0.0441677579298569 0.0
1.4954150486035547 0.0252372855318273 0.0
0.8008681350413234 -0.0312292286730147 0.0
1.0390992759937179 -0.0949686159370875 0.0
0.8394142649733076 0.0547896741838347 0.0
1.2896088569290247 -0.0230691480894840 0.0
0.6317555488270116 -0.0200198759572045 0.0
0.3679960723649215 0.0044934395055315 0.0
1.1992056592196874 -0.1237904272615247 0.0
0.8370483408655964 0.1031636989300980 0.0
0.7951695018324062 -0.0163606831565532 0.0
0.9609082949971309 0.0557955654467826 0.0
1.4010196045874370 -0.0353838821499203 0.0
0.6541689796517158 -0.0214749799881625 0.0
1.2170926922138854 0.1880347839364671 0.0
1.5040868376236021 0.0073515633135952 0.0
0.7108397588165033 -0.0127779290854469 0.0
1.1435095880017818 0.0043181113531511 0.0
1.2847242566792185 -0.0780123413086700 0.0
1.0589637982024653 -0.0591113957861322 0.0
1.4792817945939780 -0.1333353183423050 0.0
0.4493275661195248 0.2210228413947707 0.0
1.7304129560961190 0.0213583707172143 0.0
1.3991259661504791 0.0442876469260226 0.0
0.5543194427815197 0.0509344172412749 0.0
1.4908945905536657 -0.1629051233404423 0.0
1.5184518461851555 -0.0869899674364545 0.0
0.6321454012914158 -0.0078707703884794 0.0
1.0268603346388163 -0.0229297136456859 0.0
0.6730564727519391 -0.0388224129341699 0.0
0.9512624118415547 -0.0773478112839533 0.0
0.7842182486442154 -0.0530656201449681 0.0
0.3819782410760814 0.2213659313173698 0.0
1.1089881894870530 0.2648866699503667 0.0
1.5950671430663175 0.0092824399691726 0.0
0.5767513045006036 0.2232082360394551 0.0
1.5778452044847702 -0.0638255889733080 0.0
1.7460992105221089 0.0987859005612293 0.0
0.5304607501298394 0.2209136283971836 0.0
1.4842015380216305 0.0477461744562608 0.0
1.4154076177910218 -0.1355512053747883 0.0
0.9230929046534453 0.2515247120872922 0.0
1.2864600409152358 -0.0211331980417881 0.0
1.3172114554787027 0.0227195066182555 0.0
0.7802966909492633 0.0898270550687620 0.0
1.3375825348616315 -0.1178126869760715 0.0
0.6954762652276386 -0.0565942113715544 0.0
0.5624934710349174 0.2066129629285420 0.0
0.3916637846517946 0.0185900351311548 0.0
1.1888655371322225 -0.0120833374446744 0.0
0.8832360224334324 -0.2765201810742101 0.0
1.4225728692304904 0.1020497396926981 0.0
1.2975693123141245 -0.1140516793838323 0.0
0.5593004453512805 -0.0119712618772601 0.0
0.5793680061882099 0.0492406684239165 0.0
0.6990549384136718 0.0180820040410744 0.0
1.1829800978481413 -0.0087609172971645 0.0
1.2015284043671506 0.3196649067812570 0.0
0.5610005834307240 -0.0323383835329206 0.0
1.1095837863082723 -0.0727472814647267 0.0
0.5923246291891457 0.0403882496775260 0.0
1.5694345942036552 0.0406049084815825 0.0
0.4480239401016819 0.2558929072978003 0.0
0.7389111325426218 -0.1226175189501281 0.0
1.5423219480576889 -0.0451969181106781 0.0
1.2512478014084696 0.0395367984375585 0.0
1.5426179893079734 -0.1428514609335270 0.0
0.6831307805395882 0.0060009158133587 0.0
0.8722666318633173 -0.0342638788256058 0.0
1.4597852934168012 -0.1035678100573186 0.0
1.4533185830422368 -0.0979232267848076 0.0
1.0287442050965692 0.0671021603320890 0.0
1.4508610776707895 0.0381038196171411 0.0
1.3537962559234551 -0.0603833250427468 0.0
1.2856258934898757 0.1752273551058147 0.0
0.7927701101697214 -0.0068329098025740 0.0
0.7446696970215778 -0.0212831399610840 0.0
0.6770836458303572 -0.0462782201377025 0.0
1.3225953624423901 -0.0632277922083398 0.0
1.3354592839917860 -0.0944323874245040 0.0
1.1626976555385198 0.1243249638637992 0.0
0.3205297311370011 0.0327582746510186 0.0
1.4392176879579199 -0.0913201819499942 0.0
0.2893327454960333 0.1109014378649851 0.0
0.6920115515361184 0.1210847649007756 0.0
1.0309178341182146 0.0566161771810179 0.0
0.5382011773645353 -0.1143884807984675 0.0
1.1456415828955384 -0.3184995252331311 0.0
1.4198073519632657 -0.0723874500994359 0.0
1.6093588703080630 -0.0188958510632790 0.0
0.7315808861526549 0.1116842705288752 0.0
1.5205075296412287 -0.0626053418935724 0.0
0.9324803584086714 -0.0331112177133732 0.0
1.4240636232224275 -0.0656489161598370 0.0
0.9340534393483976 -0.0254935579962127 0.0
0.4736454743388060 0.2187623250568649 0.0
0.9082701334506519 -0.0555307492614919 0.0
1.0262781993519028 -0.0642705742891406 0.0
1.5686539071076750 -0.0454146178030167 0.0