# vtk DataFile Version 3.0
LucasCarvalhoTCC Results
ASCII

DATASET POLYDATA
FIELD FieldData 1
TIME 1 1 double
0.7000000000000001

POINTS 600 float
0.0 2.0 0.0
0.25 1.989125 0.0
0.5 1.958 0.0
0.75 1.908875 0.0
1.0 1.844 0.0
1.25 1.765625 0.0
1.5 1.676 0.0
1.75 1.577375 0.0
2.0 1.472 0.0
2.25 1.362125 0.0
2.5 1.25 0.0
2.75 1.137875 0.0
3.0 1.028 0.0
3.25 0.922625 0.0
3.5 0.8240000000000001 0.0
3.75 0.734375 0.0
4.0 0.6560000000000001 0.0
4.25 0.5911249999999999 0.0
4.5 0.542 0.0
4.75 0.510875 0.0
5.0 0.5 0.0
5.25 0.5036250000000004 0.0
5.5 0.5140000000000002 0.0
5.75 0.5303750000000003 0.0
6.0 0.5519999999999996 0.0
6.25 0.578125 0.0
6.5 0.6080000000000005 0.0
6.75 0.6408749999999999 0.0
7.0 0.6760000000000002 0.0
7.25 0.7126249999999992 0.0
7.5 0.75 0.0
7.75 0.7873750000000004 0.0
8.0 0.8239999999999994 0.0
8.25 0.8591250000000001 0.0
8.5 0.8919999999999999 0.0
8.75 0.921875 0.0
9.0 0.9479999999999991 0.0
9.25 0.9696250000000011 0.0
9.5 0.9859999999999984 0.0
9.75 0.9963750000000013 0.0
10.0 1.0 0.0
0.0 0.0 0.0
10.0 0.0 0.0
0.124999999999674 1.994562500000014 0.0
0.3749999999999947 1.973562500000001 0.0
0.6249999999999918 1.933437500000002 0.0
0.874999999999979 1.876437500000006 0.0
1.124999999999963 1.804812500000012 0.0
1.374999999999944 1.72081250000002 0.0
1.624999999999985 1.626687500000006 0.0
1.874999999999953 1.52468750000002 0.0
2.124999999999936 1.417062500000028 0.0
2.374999999999952 1.306062500000022 0.0
2.624999999999919 1.193937500000036 0.0
2.87499999999992 1.082937500000035 0.0
3.124999999999946 0.9753125000000229 0.0
3.374999999999948 0.8733125000000204 0.0
3.624999999999972 0.77918750000001 0.0
3.874999999999963 0.6951875000000118 0.0
4.124999999999968 0.6235625000000082 0.0
4.394409538298571 0.5627485257243309 0.0
4.583333333333322 0.5316250000000015 0.0
4.666666666666668 0.5212499999999999 0.0
4.833333333333334 0.50725 0.0
4.916666666666667 0.503625 0.0
5.083333333333334 0.5012083333333335 0.0
5.166666666666666 0.502416666666667 0.0
5.333333333333334 0.5070833333333337 0.0
5.416666666666667 0.510541666666667 0.0
5.583333333333334 0.5194583333333336 0.0
5.666666666666666 0.5249166666666669 0.0
5.833333333333338 0.5375833333333339 0.0
5.916666666666661 0.544791666666666 0.0
6.105781577147724 0.5630541748119369 0.0
6.375 0.5930625000000003 0.0
6.624999999999988 0.6244374999999988 0.0
6.874999999999994 0.6584374999999991 0.0
7.125 0.6943124999999997 0.0
7.375 0.7313124999999996 0.0
7.624999999999994 0.7686874999999992 0.0
7.875 0.8056874999999999 0.0
8.125 0.8415624999999998 0.0
8.374999999999991 0.8755624999999989 0.0
8.624999999999995 0.9069374999999993 0.0
8.874999999999995 0.9349374999999991 0.0
9.125 0.9588125000000001 0.0
9.375 0.9778124999999998 0.0
9.625 0.9911874999999999 0.0
9.875 0.9981875000000007 0.0
0.0 1.799999999999167 0.0
0.0 1.6 0.0
0.0 1.400000000001387 0.0
0.0 1.200000000002774 0.0
0.0 1.000000000004117 0.0
0.0 0.8000000000033287 0.0
0.0 0.6000000000024965 0.0
0.0 0.4000000000016644 0.0
0.0 0.200000000000832 0.0
0.199999999999856 0.0 0.0
0.3999999999996677 0.0 0.0
0.5999999999994683 0.0 0.0
0.7999999999993286 0.0 0.0
0.9999999999991888 0.0 0.0
1.199999999999033 0.0 0.0
1.399999999998576 0.0 0.0
1.599999999997992 0.0 0.0
1.799999999997408 0.0 0.0
1.999999999996825 0.0 0.0
2.199999999996241 0.0 0.0
2.399999999995657 0.0 0.0
2.599999999995073 0.0 0.0
2.79999999999449 0.0 0.0
2.999999999993906 0.0 0.0
3.199999999993322 0.0 0.0
3.399999999992738 0.0 0.0
3.599999999992154 0.0 0.0
3.799999999991571 0.0 0.0
3.999999999991022 0.0 0.0
4.199999999991187 0.0 0.0
4.399999999991491 0.0 0.0
4.599999999991795 0.0 0.0
4.799999999992099 0.0 0.0
4.999999999992403 0.0 0.0
5.199999999992706 0.0 0.0
5.39999999999301 0.0 0.0
5.599999999993313 0.0 0.0
5.799999999993618 0.0 0.0
5.999999999993922 0.0 0.0
6.199999999994227 0.0 0.0
6.39999999999453 0.0 0.0
6.599999999994833 0.0 0.0
6.799999999995138 0.0 0.0
6.999999999995442 0.0 0.0
7.199999999995747 0.0 0.0
7.39999999999605 0.0 0.0
7.599999999996353 0.0 0.0
7.799999999996658 0.0 0.0
7.999999999996962 0.0 0.0
8.199999999997265 0.0 0.0
8.399999999997569 0.0 0.0
8.599999999997873 0.0 0.0
8.799999999998176 0.0 0.0
8.99999999999848 0.0 0.0
9.199999999998786 0.0 0.0
9.399999999999089 0.0 0.0
9.599999999999392 0.0 0.0
9.799999999999697 0.0 0.0
10.0 0.1999999999995579 0.0
10.0 0.3999999999989749 0.0
10.0 0.5999999999989468 0.0
10.0 0.7999999999994734 0.0
0.913963423524136 0.9126937851647636 0.0
1.629657910441747 0.8286436141773268 0.0
2.300136613917738 0.6369890708869279 0.0
0.5989085226155619 1.38125543468559 0.0
1.274155622640533 1.242773398230304 0.0
2.860215383945273 0.5217401976756945 0.0
9.469653920408135 0.4910067017840992 0.0
8.984679546317787 0.4696119782494839 0.0
8.499397693277212 0.4463630640980716 0.0
3.270918412356206 0.4522692359356972 0.0
1.223039611612243 0.5146439900227544 0.0
2.024812732135938 1.00818256045515 0.0
0.5365376864627701 0.5434316309416508 0.0
8.114834335444021 0.4602948767329583 0.0
7.742261962994204 0.4117304941858466 0.0
0.9443382341364558 1.456061359265878 0.0
1.665275621558886 1.201744468407863 0.0
1.89566112584099 0.4397284596316843 0.0
3.691409759982064 0.3560936332572802 0.0
7.368457390036411 0.3792926046732459 0.0
0.5071184951703254 0.9340893429149442 0.0
0.3822273842356539 1.647625881691675 0.0
5.916285335387544 0.2564903116750689 0.0
5.628860531758535 0.2582323053999509 0.0
5.380471017960128 0.2502349014663197 0.0
5.139244585769944 0.2549145445969738 0.0
2.686085237972266 0.8031095648160084 0.0
4.507599040026292 0.263176944655695 0.0
6.983755234374982 0.3380000000001097 0.0
9.720925955181613 0.6635813325201156 0.0
1.288006195687152 0.8759679848503046 0.0
9.20556379558699 0.6923669083350594 0.0
2.319913492084225 0.9512500928262699 0.0
8.73203612228155 0.6151508464420534 0.0
4.868679481352366 0.2526598053940744 0.0
4.10358044398202 0.3012437332986487 0.0
6.602422946953217 0.3126221952225479 0.0
2.534693527909069 0.3583319619586092 0.0
6.193332317503376 0.2894654215336858 0.0
0.8804088217382579 0.3735513844182569 0.0
0.7663303172393539 1.679065267574722 0.0
3.081211528283084 0.6968015573146217 0.0
1.241762689885858 1.521465072418641 0.0
1.573472750763779 0.3374689934575129 0.0
1.475107933015155 1.403918544935278 0.0
0.8212739503602162 1.195790902469637 0.0
4.681049549092561 0.3558177014380842 0.0
9.439519900118443 0.7366884444350511 0.0
2.201393787062887 0.3261463175998884 0.0
2.015369189818184 0.7109460688851087 0.0
8.32727069655695 0.6360373328685593 0.0
8.961488632119996 0.7119124617705204 0.0
9.22773266034565 0.3109430611770705 0.0
0.3000513553073295 1.178778127105867 0.0
1.91985473842554 1.233084801189704 0.0
8.749827252515535 0.3049638092131281 0.0
3.50551132590258 0.5576614504134195 0.0
3.040500962406976 0.290446660105673 0.0
9.72097519930939 0.3037986529514364 0.0
0.3073166349239687 0.3249300260882615 0.0
0.2948185331392187 0.7229775107826154 0.0
1.46029425821417 1.06552904833304 0.0
0.8085718129253527 0.673531272847494 0.0
7.913326191751847 0.5738936378911789 0.0
8.295349499871781 0.2556682497524391 0.0
4.31359646688283 0.3665214152100782 0.0
7.542842082022704 0.5249918217576657 0.0
1.058357552227335 1.116692590939024 0.0
2.214297272750292 1.159898327391242 0.0
2.901187336648686 0.8282146771898153 0.0
3.933498145061447 0.4325241689837319 0.0
7.956006969037984 0.2667411694088205 0.0
7.172393179434975 0.4835114022190097 0.0
1.440243631802057 0.6689433452646625 0.0
3.458541882144431 0.2581755850286561 0.0
5.791617360065465 0.3978542524532168 0.0
5.981529865241493 0.3900667299390458 0.0
1.083462543944253 0.7203994120564634 0.0
1.78518471978951 1.008552691762234 0.0
2.77360122246243 0.2689852172070111 0.0
2.565134389978369 0.9928826788184764 0.0
2.543046005790158 0.6034091352176242 0.0
3.293038780485421 0.6769811703257343 0.0
6.790787388653942 0.4353933509634578 0.0
1.140204059461831 0.2538227257007896 0.0
0.6242104065654487 0.2738473600765566 0.0
6.393430278703709 0.3766405270445946 0.0
8.533059390324546 0.6950580701614406 0.0
0.9961263693263854 1.612128843772703 0.0
1.697598586607002 0.5781950992180334 0.0
8.087930458724863 0.6517815437732153 0.0
0.2748906317360928 1.770749713716887 0.0
0.5785110002099415 1.757022387413085 0.0
5.550004842562332 0.3852675728674634 0.0
4.948161884155141 0.3480305424737933 0.0
1.741244734175577 1.381979611033466 0.0
5.312408927381063 0.3621256994047111 0.0
0.2492139438157334 1.453132031680879 0.0
7.597720022451821 0.2370268512906596 0.0
9.471021754366422 0.2472916581956264 0.0
7.714083843672875 0.600212897672991 0.0
4.520815862079482 0.3946753115680038 0.0
2.47356661122767 0.8007389356831706 0.0
7.325494311403363 0.528948935030723 0.0
7.147005275585743 0.2709670165999667 0.0
3.758046446289313 0.5474783841545341 0.0
3.893717059615281 0.1664960777568404 0.0
2.152835534199412 0.8614028741175742 0.0
8.995993312441625 0.1933410497113667 0.0
1.077676137392001 1.368204555688504 0.0
0.2429906229817933 0.9816066505657851 0.0
0.6261765586985547 1.180540007244081 0.0
9.81151801018651 0.816223424030724 0.0
0.6725442903064565 0.8425384371773644 0.0
1.74584086891446 0.2617492458514414 0.0
0.7667820686164357 1.440842670056678 0.0
8.539133693395232 0.1910926418035274 0.0
5.129145653242096 0.3632579123815574 0.0
6.816538849831732 0.2013284992826486 0.0
2.108503954619862 0.5359795950847274 0.0
6.933669557130528 0.4980836483776163 0.0
3.071406705674529 0.4919421055852253 0.0
2.001240035874449 0.2292738462614773 0.0
4.782473531509697 0.4061213127162872 0.0
0.5734126310178208 1.536352720889636 0.0
9.796714529589472 0.4898048068674991 0.0
5.678359041645315 0.373719883316694 0.0
5.427661572827738 0.3646059266294788 0.0
2.075214597532947 1.226969224366912 0.0
3.251521478555126 0.2637671977660283 0.0
2.722180837291864 0.9710783334409533 0.0
9.333262390342384 0.8479609887828539 0.0
1.367251332770493 0.2041553944563636 0.0
1.870721433742522 0.7905989208842599 0.0
1.387906762913351 1.555741687747287 0.0
9.559918612869 0.8444052974080497 0.0
9.286795039366257 0.4698254290795815 0.0
[...]
POINT_DATA 600

VECTORS Velocity float
0.0000000000000000 0.0000000000000000 0.0
0.0000000000000000 0.0000000000000000 0.0
0.0000000000000000 0.0000000000000000 0.0
0.0000000000000000 0.0000000000000000 0.0
0.0000000000000000 0.0000000000000000 0.0
0.0000000000000000 0.0000000000000000 0.0
0.0000000000000000 0.0000000000000000 0.0
0.0000000000000000 0.0000000000000000 0.0
0.0000000000000000 0.0000000000000000 0.0
0.0000000000000000 0.0000000000000000 0.0
0.0000000000000000 0.0000000000000000 0.0
0.0000000000000000 0.0000000000000000 0.0
0.0000000000000000 0.0000000000000000 0.0
0.0000000000000000 0.0000000000000000 0.0
0.0000000000000000 0.0000000000000000 0.0
0.0000000000000000 0.0000000000000000 0.0
0.0000000000000000 0.0000000000000000 0.0
0.0000000000000000 0.0000000000000000 0.0
0.0000000000000000 0.0000000000000000 0.0
0.0000000000000000 0.0000000000000000 0.0
0.0000000000000000 0.0000000000000000 0.0
0.0000000000000000 0.0000000000000000 0.0
0.0000000000000000 0.0000000000000000 0.0
0.0000000000000000 0.0000000000000000 0.0
0.0000000000000000 0.0000000000000000 0.0
0.0000000000000000 0.0000000000000000 0.0
0.0000000000000000 0.0000000000000000 0.0
0.0000000000000000 0.0000000000000000 0.0
0.0000000000000000 0.0000000000000000 0.0
0.0000000000000000 0.0000000000000000 0.0
0.0000000000000000 0.0000000000000000 0.0
0.0000000000000000 0.0000000000000000 0.0
0.0000000000000000 0.0000000000000000 0.0
0.0000000000000000 0.0000000000000000 0.0
0.0000000000000000 0.0000000000000000 0.0
0.0000000000000000 0.0000000000000000 0.0
0.0000000000000000 0.0000000000000000 0.0
0.0000000000000000 0.0000000000000000 0.0
0.0000000000000000 0.0000000000000000 0.0
0.0000000000000000 0.0000000000000000 0.0
0.0000000000000000 0.0000000000000000 0.0
0.0000000000000000 0.0000000000000000 0.0
0.8307803527014110 -0.1250724661661110 0.0
0.0000000000000000 0.0000000000000000 0.0
0.0000000000000000 0.0000000000000000 0.0
0.0000000000000000 0.0000000000000000 0.0
0.0000000000000000 0.0000000000000000 0.0
0.0000000000000000 0.0000000000000000 0.0
0.0000000000000000 0.0000000000000000 0.0
0.0000000000000000 0.0000000000000000 0.0
0.0000000000000000 0.0000000000000000 0.0
0.0000000000000000 0.0000000000000000 0.0
0.0000000000000000 0.0000000000000000 0.0
0.0000000000000000 0.0000000000000000 0.0
0.0000000000000000 0.0000000000000000 0.0
0.0000000000000000 0.0000000000000000 0.0
0.0000000000000000 0.0000000000000000 0.0
0.0000000000000000 0.0000000000000000 0.0
0.0000000000000000 0.0000000000000000 0.0
0.0000000000000000 0.0000000000000000 0.0
0.0000000000000000 0.0000000000000000 0.0
0.0000000000000000 0.0000000000000000 0.0
0.0000000000000000 0.0000000000000000 0.0
0.0000000000000000 0.0000000000000000 0.0
0.0000000000000000 0.0000000000000000 0.0
0.0000000000000000 0.0000000000000000 0.0
0.0000000000000000 0.0000000000000000 0.0
0.0000000000000000 0.0000000000000000 0.0
0.0000000000000000 0.0000000000000000 0.0
0.0000000000000000 0.0000000000000000 0.0
0.0000000000000000 0.0000000000000000 0.0
0.0000000000000000 0.0000000000000000 0.0
0.0000000000000000 0.0000000000000000 0.0
0.0000000000000000 0.0000000000000000 0.0
0.0000000000000000 0.0000000000000000 0.0
0.0000000000000000 0.0000000000000000 0.0
0.0000000000000000 0.0000000000000000 0.0
0.0000000000000000 0.0000000000000000 0.0
0.0000000000000000 0.0000000000000000 0.0
0.0000000000000000 0.0000000000000000 0.0
0.0000000000000000 0.0000000000000000 0.0
0.0000000000000000 0.0000000000000000 0.0
0.0000000000000000 0.0000000000000000 0.0
0.0000000000000000 0.0000000000000000 0.0
0.0000000000000000 0.0000000000000000 0.0
0.0000000000000000 0.0000000000000000 0.0
0.0000000000000000 0.0000000000000000 0.0
0.0000000000000000 0.0000000000000000 0.0
0.0000000000000000 0.0000000000000000 0.0
1.0000000000000000 0.0000000000000000 0.0
1.0000000000000000 0.0000000000000000 0.0
1.0000000000000000 0.0000000000000000 0.0
1.0000000000000000 0.0000000000000000 0.0
1.0000000000000000 0.0000000000000000 0.0
1.0000000000000000 0.0000000000000000 0.0
1.0000000000000000 0.0000000000000000 0.0
1.0000000000000000 0.0000000000000000 0.0
1.0000000000000000 0.0000000000000000 0.0
0.0000000000000000 0.0000000000000000 0.0
0.0000000000000000 0.0000000000000000 0.0
0.0000000000000000 0.0000000000000000 0.0
0.0000000000000000 0.0000000000000000 0.0
0.0000000000000000 0.0000000000000000 0.0
0.0000000000000000 0.0000000000000000 0.0
0.0000000000000000 0.0000000000000000 0.0
0.0000000000000000 0.0000000000000000 0.0
0.0000000000000000 0.0000000000000000 0.0
0.0000000000000000 0.0000000000000000 0.0
0.0000000000000000 0.0000000000000000 0.0
0.0000000000000000 0.0000000000000000 0.0
0.0000000000000000 0.0000000000000000 0.0
0.0000000000000000 0.0000000000000000 0.0
0.0000000000000000 0.0000000000000000 0.0
0.0000000000000000 0.0000000000000000 0.0
0.0000000000000000 0.0000000000000000 0.0
0.0000000000000000 0.0000000000000000 0.0
0.0000000000000000 0.0000000000000000 0.0
0.0000000000000000 0.0000000000000000 0.0
0.0000000000000000 0.0000000000000000 0.0
0.0000000000000000 0.0000000000000000 0.0
0.0000000000000000 0.0000000000000000 0.0
0.0000000000000000 0.0000000000000000 0.0
0.0000000000000000 0.0000000000000000 0.0
0.0000000000000000 0.0000000000000000 0.0
0.0000000000000000 0.0000000000000000 0.0
0.0000000000000000 0.0000000000000000 0.0
0.0000000000000000 0.0000000000000000 0.0
0.0000000000000000 0.0000000000000000 0.0
0.0000000000000000 0.0000000000000000 0.0
0.0000000000000000 0.0000000000000000 0.0
0.0000000000000000 0.0000000000000000 0.0
0.0000000000000000 0.0000000000000000 0.0
0.0000000000000000 0.0000000000000000 0.0
0.0000000000000000 0.0000000000000000 0.0
0.0000000000000000 0.0000000000000000 0.0
0.0000000000000000 0.0000000000000000 0.0
0.0000000000000000 0.0000000000000000 0.0
0.0000000000000000 0.0000000000000000 0.0
0.0000000000000000 0.0000000000000000 0.0
0.0000000000000000 0.0000000000000000 0.0
0.0000000000000000 0.0000000000000000 0.0
0.0000000000000000 0.0000000000000000 0.0
0.0000000000000000 0.0000000000000000 0.0
0.0000000000000000 0.0000000000000000 0.0
0.0000000000000000 0.0000000000000000 0.0
0.0000000000000000 0.0000000000000000 0.0
0.0000000000000000 0.0000000000000000 0.0
1.0707174179882961 -0.4259179478736194 0.0
0.9787315876697518 -0.1539854199206800 0.0
0.9797074273610646 -0.0256914004337451 0.0
1.0747140312317716 0.3359577605253725 0.0
1.1834995822114589 0.0030560892009030 0.0
1.2229441403538017 -0.0439470756487411 0.0
1.2634478009092738 -0.0961730714068508 0.0
1.1638219551393236 -0.0429681712453784 0.0
1.2560351073192861 -0.0681521394484564 0.0
1.3672865827898419 -0.0756145106519492 0.0
1.4276924238442539 -0.0154273404966300 0.0
1.4162472063359468 0.0109432025399263 0.0
1.4878930748640908 0.0691496077188661 0.0
1.4238686512951553 -0.0977119271198312 0.0
1.2041541163191873 -0.0068117003876784 0.0
1.2389202948468230 -0.0794301614603995 0.0
1.1746641878992934 0.1234323712233499 0.0
1.4872440405643059 0.0570379460915746 0.0
1.4739585381033113 0.0196535533362721 0.0
1.2106147839703063 -0.0585282315391189 0.0
1.2653290998875719 -0.0582344914290331 0.0
1.1906617205848209 -0.0089741938687827 0.0
1.5021268373326440 -0.0427407361767861 0.0
1.5443144642911382 0.0318343490609041 0.0
1.1160944963086310 0.0654447051696388 0.0
1.2124005803997786 -0.1467956380706784 0.0
1.4919248385088315 0.0257534001916713 0.0
1.4956397734837839 -0.0209711670686389 0.0
1.5244447307885196 0.0319879037205506 0.0
1.5471087595135780 0.0178904678379602 0.0
1.3308523727244150 -0.1349982417937021 0.0
1.4944388717098216 -0.0082162650733139 0.0
1.6376534747757698 0.0252356671319718 0.0
1.2886396832677847 0.0978708622324228 0.0
1.2094829959279239 -0.0251547071392091 0.0
1.3617746686543795 -0.0327474370491387 0.0
1.2672099315640246 -0.1321655281872656 0.0
1.4255194180246835 0.0875453382647024 0.0
1.5162963110436734 -0.0029162038173242 0.0
1.6218188783395466 -0.0938381125389838 0.0
1.6763570643885375 -0.0466039516649970 0.0
1.2332144748900922 -0.0479927179188606 0.0
1.5833416061002317 -0.0169675553365258 0.0
1.1290545607636815 0.0377766420348779 0.0
1.0652604968013057 -0.0213477897246114 0.0
1.3423794965420297 -0.0858390045888675 0.0
1.0996144885641035 -0.0517793592054982 0.0
1.0469333310308206 -0.0486600332669186 0.0
1.1752755565520419 -0.0221913314532380 0.0
1.1799834862826855 -0.0215511457854117 0.0
1.7636030957933648 -0.1247673227567439 0.0
1.3185028361393638 0.0043963381823380 0.0
1.0961599294735063 -0.0659106381100640 0.0
1.2387075464912318 -0.0604029092843888 0.0
1.3651968312374101 0.0315381126550740 0.0
1.3196823232992947 0.0051260290696057 0.0
1.2677893965250455 -0.0198568059604532 0.0
1.0556711629860827 -0.0047132194948664 0.0
1.1979747904434654 -0.0378242153503849 0.0
1.2696129110865733 0.0116490787035974 0.0
1.4199770715817517 -0.0731490101167855 0.0
1.2463283069226245 -0.0208168332895320 0.0
1.2353258061241321 -0.1642459802391971 0.0
1.1560884801501283 0.2576307686756319 0.0
1.0646779672950335 0.1432925965678956 0.0
1.2392671148717966 -0.0439874991517788 0.0
1.1771319305649894 0.0429806258203554 0.0
1.3992729060425217 0.0608747846047957 0.0
1.2447740476964633 0.0151230638850601 0.0
1.7262460640882911 0.0582841029866615 0.0
1.4477409587315260 0.0203418676815566 0.0
1.2049065848520473 -0.0268493706266870 0.0
1.0661866744400248 -0.0685977124712396 0.0
1.1876640885015357 -0.0442389312172463 0.0
1.5768558831248916 -0.1301561893300097 0.0
1.3069654592971220 0.0507053083116430 0.0
1.4252816715303651 0.0720930847286420 0.0
1.2109334516629595 -0.0245902970334295 0.0
1.2542071978253551 -0.0323741237305643 0.0
1.4938243088712753 -0.0357852933751310 0.0
1.5717922347002804 0.0405972431823110 0.0
1.1939737037374343 -0.0001511942028911 0.0
1.2443549718020994 -0.0579472943208870 0.0
1.1598663929250310 -0.0610600143481617 0.0
1.1038309045220283 -0.0960311255249151 0.0
1.3036312574642033 -0.0998503535427866 0.0
1.2617546938648030 -0.1193378096812405 0.0
1.5613739741833235 0.0088126607399461 0.0
0.8278537613044472 0.0209370239345229 0.0
1.0207313534213491 0.0670269662885563 0.0
1.6541167562315926 0.0197538464322766 0.0
1.2674488334394520 0.0127122370769731 0.0
1.0826390541512660 -0.0331504542879234 0.0
1.1992976288613848 -0.0473681067911533 0.0
1.2422832883828383 0.0137938934699781 0.0
1.1686800439715876 -0.2292741032383896 0.0
1.0159571682874049 0.0326607583453521 0.0
1.5482205320795321 0.0111781545168171 0.0
1.6241250063397195 -0.0121023287548375 0.0
1.0458049822656792 0.0171972317807013 0.0
1.5671409918454651 0.0522773096964479 0.0
1.0774434721863226 -0.0993213019905992 0.0
1.2430253073562714 0.0228260863621423 0.0
1.1867032126154293 -0.0272319469028720 0.0
1.2629414231334006 0.0233609872048875 0.0
1.6282043834716504 -0.0287806325696554 0.0
1.2976169264764350 -0.1547404154124640 0.0
1.4195567857230333 0.0346243814914705 0.0
1.4429040852478277 0.0782645027404199 0.0
1.3374336339442732 -0.0592358549939635 0.0
0.7633259407828692 -0.0842387262707412 0.0
1.2469436872439996 -0.0995992344060896 0.0
0.7359906495300544 -0.0084261475823847 0.0
1.2306058513547558 -0.0683273736751382 0.0
1.0381137674962484 0.0366283098286493 0.0
1.1453577070956964 0.0002921729137330 0.0
1.1960251434527986 0.1977140718548870 0.0
1.1498136813420898 0.0545971131335620 0.0
0.9217584208253951 0.0190699600920860 0.0
1.2057273303604539 -0.0524237420259131 0.0
0.7664861194665095 0.0032497545464109 0.0
1.6083609485765367 0.0068876094755960 0.0
1.0290808514984788 0.0739526529807875 0.0
1.2499298578251188 -0.0754341718320568 0.0
1.1265122390303286 0.0034645994247434 0.0
1.3799778666984781 -0.1103727013709791 0.0
0.7170183995902755 -0.0452525243145711 0.0
1.1528992045213382 -0.0679972705328263 0.0
1.2083022204656235 -0.0503611285214651 0.0
1.2261714810340285 -0.0810388725041469 0.0
1.5839662658985880 -0.0089204459220513 0.0
1.5639701585205554 0.0415777882663331 0.0
1.0641420378483109 0.0136056516679303 0.0
1.2458852640378093 -0.0339708172270647 0.0
0.8443275299162635 0.0526022846458661 0.0
0.6741301729963192 -0.0000426832318607 0.0
0.6156092657485539 0.0305678083457527 0.0
1.2254469514741924 -0.0550101153947138 0.0
0.7361946505112879 0.1148778522554657 0.0
0.7780296538490984 -0.0065533890793591 0.0
1.4224198011113542 0.0061231683974385 0.0
1.2736945026044193 -0.0530690189932273 0.0
1.2508107350973121 -0.0291410497452115 0.0
1.4801743874072044 0.0450857400354760 0.0
1.2213977852563014 -0.0393382848574414 0.0
1.5468634377252064 0.0229755802508831 0.0
1.2074150299722286 0.0651438574817893 0.0
1.1255334993157624 -0.1788869649130006 0.0
1.1284641014784427 0.1076067791020786 0.0
1.0986312040397177 0.1904059277050151 0.0
1.0687782711551979 -0.0452659877625693 0.0
1.1783358809208986 0.0286813737167662 0.0
0.9396073848959137 0.0273508577165853 0.0
0.7271225592683853 0.0872316636187125 0.0
0.9945274733374926 -0.0106929014565309 0.0
1.2023904009516504 -0.0197380181853301 0.0
0.7912356925039433 0.0730506911811883 0.0
1.2063750968984108 0.0148085728378159 0.0
1.2193635956170057 -0.0370703563781829 0.0
1.0251180897794954 -0.0045154935826336 0.0
1.2638825149356647 0.0273549401085032 0.0
1.4295534268972980 0.0381332396190750 0.0
1.1679924593020234 -0.0749900197157121 0.0
1.2479210491245702 -0.0715814535084659 0.0
0.6919434059472865 0.0968669616717665 0.0
0.6912945623159950 0.0732583707811331 0.0
0.8579250960400905 -0.0073574072020974 0.0
1.3698135220618517 -0.0809474089933065 0.0
1.2321276931746559 -0.0474309536110793 0.0
0.7174260196706110 0.1094386422117983 0.0
0.8008466522259482 -0.0288012794881675 0.0
1.1021106330853765 0.0117898678356205 0.0
1.3142638003858758 -0.0662260479560213 0.0
1.0114908419904374 0.0021477462098303 0.0
1.1625344925190844 0.0100990768014347 0.0
1.2159340861802173 -0.0441967132648382 0.0
0.9585100044495511 0.0063783435593916 0.0
0.8931473595456298 0.0590913360396327 0.0
1.3129774848463971 -0.0003603638826827 0.0
0.8223731832670218 -0.0235260379342941 0.0
1.4999564756730308 -0.0197294150546743 0.0
0.7982426753998089 0.0200126522632406 0.0
0.7986559253956195 -0.0209020479683711 0.0
1.2065736105260489 -0.0442641421255821 0.0
1.2034577836709757 -0.0137027376796782 0.0
1.0106599042553581 0.0011154802736891 0.0
0.7523563416099219 0.1302421036609048 0.0
0.8872005562092270 0.0009350514323168 0.0
1.1990407770324860 -0.0181618201175847 0.0
0.8952490278307441 0.0454556285938979 0.0
1.1847919694092812 0.0846801710198539 0.0
1.2126317141493543 -0.0731383385606470 0.0
0.7298445581747708 0.0194804466782101 0.0
1.4014536084304332 -0.0129082285321275 0.0
0.9357694681613855 -0.0079878920657509 0.0
1.4020066762323777 -0.0176823716774423 0.0
0.5962747050617443 -0.0397796275494755 0.0
1.2712794883962155 -0.1139749943620314 0.0
1.4514035735656396 -0.0143727483155686 0.0
0.7292359580577645 0.0888375948922455 0.0
0.8073355987263110 -0.0250869391464290 0.0
1.4842994851375273 0.0655818009748652 0.0
0.9826442724003974 0.0467361968910700 0.0
1.4647182619165187 0.0423132550462629 0.0
1.1610588436523013 -0.0608946837062726 0.0
0.8401263509234534 -0.0489802373920927 0.0
0.7871510366624171 -0.0103789819728842 0.0
0.9968949628806496 -0.0209804620711571 0.0
0.9865551757566833 0.0274015473755664 0.0
1.4668469807265456 0.0073789604052635 0.0
0.6256729033738418 0.0336438991004872 0.0
0.8825385786998564 -0.0530928195578808 0.0
0.8446069055562377 0.0518046510412442 0.0
1.3951543699558067 0.0523820186174886 0.0
0.8215177940063848 -0.1840833374917944 0.0
0.8313161271328542 -0.0197640653079908 0.0
0.5977507067067133 -0.0391131870898104 0.0
1.1962458955158828 -0.0265694459441062 0.0
0.8003406437172492 0.1424193934261158 0.0
0.8854891024915025 0.0430969694806264 0.0
1.2353796967869870 -0.1222940010857823 0.0
0.8104285499514463 -0.0098843958780937 0.0
0.9177205861222042 -0.0050270581781750 0.0
1.1525364027574125 -0.0525174713313218 0.0
0.8187542695871541 -0.0171215461686808 0.0
0.7791268011052664 -0.0423424170889883 0.0
1.3851394761238471 0.0353499192763463 0.0
0.8405198381510491 -0.0245532489681535 0.0
1.0307096028661169 -0.0373840516385311 0.0
0.8388838944066613 0.0541679289568023 0.0
1.2679600453980866 -0.0721723629952062 0.0
0.7022657807310810 -0.0119916817666220 0.0
0.5524398063473324 0.0127599984047054 0.0
1.1139766079287283 -0.0186102995134707 0.0
0.8727709803120475 0.0776992428527755 0.0
0.7936456678213193 -0.0172644554582680 0.0
0.9542819633901302 0.0471918540576907 0.0
1.1819076489268157 -0.0124950902735370 0.0
0.7363005674527429 -0.0163093876662702 0.0
1.1728406262202009 0.1420953638037078 0.0
1.3981829554772109 -0.0015220203007225 0.0
0.7221120935551347 -0.0075158263268350 0.0
1.1090040710770455 0.0089564724013495 0.0
1.1739813203542804 -0.0290432079150760 0.0
1.1664174335311810 -0.0413080173097010 0.0
1.2320672765868830 -0.0742459113772372 0.0
0.5947061005483379 0.1638405113453186 0.0
1.6801017176750923 0.0192361812124227 0.0
1.1824013264228761 0.0178253065549250 0.0
0.6374226850495420 0.0557632554222082 0.0
1.2525011577438181 -0.0873652932320036 0.0
1.3711530112002615 -0.0942941583668916 0.0
0.7147930913933528 -0.0005701981403329 0.0
1.0227492164010388 0.0047678877714779 0.0
0.6736347253552190 -0.0392415156220587 0.0
0.9488020217535129 -0.0760401974325927 0.0
0.7949209255993538 -0.0593063221116388 0.0
0.5194458010151296 0.1766230962567827 0.0
1.1713739043673914 0.1386041338285504 0.0
1.5741584108391991 0.0186372149931149 0.0
0.6692197032949793 0.1798440782100557 0.0
1.5023568324064673 -0.0370892203392757 0.0
1.7238141016344128 0.0664424733938957 0.0
0.6619624651064477 0.1554472476970399 0.0
1.4316724404438135 0.0485534261158841 0.0
1.3524123716900487 -0.1317276189538121 0.0
0.9425736666040468 0.2335840303289956 0.0
1.3011029237081848 -0.0177579225259743 0.0
1.3211663329001022 0.0152021617890021 0.0
0.7859955462890960 0.0885155950065937 0.0
1.3208743053671828 -0.0772197616124659 0.0
0.7762281719422061 -0.0548799817494716 0.0
0.7189748527533596 0.1481661226272545 0.0
0.5332495577644756 0.0355135707665662 0.0
1.2449890205374128 -0.0320391775367927 0.0
0.9064071626631270 -0.2572940155965774 0.0
1.3808650521554291 0.0806794472269796 0.0
1.2841579833510857 -0.0632882980831487 0.0
0.6187247577963556 -0.0127715896177026 0.0
0.6435164411897581 0.0477479840970295 0.0
0.7253244246074425 0.0151436364687865 0.0
1.0944319935842552 0.0317244164247676 0.0
1.1660285069157139 0.1951231246625067 0.0
0.6359739379147503 -0.0421800685474371 0.0
1.1948592564552147 -0.0333554322583523 0.0
0.6219470043122317 0.0485346297992307 0.0
1.5567789213060621 0.0321181458472512 0.0
0.5522471181778310 0.2064075499793267 0.0
0.7973175457904610 -0.1134534439476646 0.0
1.4888125537488819 -0.0462365675719250 0.0
1.2674276132028384 0.0248048910545638 0.0
1.3502472529834901 -0.1004216473920762 0.0
0.7137976285627859 0.0047671378379473 0.0
0.8710955092162397 -0.0343694253000959 0.0
1.3895043298959839 -0.0872487968784552 0.0
1.2137057703518039 -0.0388404009581233 0.0
1.0157063493788563 0.0621283492427077 0.0
1.4017732461317101 0.0343738410213542 0.0
1.2242302564038694 -0.0528686606064800 0.0
1.1696012961659668 0.0827061484223953 0.0
1.0277876590108563 -0.0019936236788389 0.0
0.7467847554637669 -0.0238045325216648 0.0
0.6804358211673480 -0.0429504642212268 0.0
1.2650194844945364 -0.0618105162824829 0.0
1.2279546812203488 -0.0277551414141969 0.0
1.0844332106750136 0.0969635856732200 0.0
0.4591069545989487 0.0316326662109442 0.0
1.3941533724970276 -0.1089242827705900 0.0
0.4063098550748085 0.1032802093614523 0.0
0.7170214095906580 0.1093415105157077 0.0
1.1865551835752921 -0.0321492718926982 0.0
0.5685271547600508 -0.1248608741658311 0.0
1.1447314101799693 -0.2750857087995975 0.0
1.2453786039557140 -0.0485566068191906 0.0
1.5745762374268351 -0.0123143709395451 0.0
0.7299818320377069 0.1041886348289482 0.0
1.5190955949992784 -0.0552326850965110 0.0
0.9119360144785362 -0.0289188810334298 0.0
1.2523817598679652 -0.0458760974953047 0.0
0.9165823706569239 -0.0263959360529856 0.0
0.6050688513212805 0.1578149609778860 0.0
0.9209138536106607 -0.0467092196763581 0.0
1.0485111280369563 -0.0559516106988044 0.0