# vtk DataFile Version 3.0
LucasCarvalhoTCC Results
ASCII

DATASET POLYDATA
FIELD FieldData 1
TIME 1 1 double
3.0

POINTS 600 float
0.0 2.0 0.0
0.25 1.989125 0.0
0.5 1.958 0.0
0.75 1.908875 0.0
1.0 1.844 0.0
1.25 1.765625 0.0
1.5 1.676 0.0
1.75 1.577375 0.0
2.0 1.472 0.0
2.25 1.362125 0.0
2.5 1.25 0.0
2.75 1.137875 0.0
3.0 1.028 0.0
3.25 0.922625 0.0
3.5 0.8240000000000001 0.0
3.75 0.734375 0.0
4.0 0.6560000000000001 0.0
4.25 0.5911249999999999 0.0
4.5 0.542 0.0
4.75 0.510875 0.0
5.0 0.5 0.0
5.25 0.5036250000000004 0.0
5.5 0.5140000000000002 0.0
5.75 0.5303750000000003 0.0
6.0 0.5519999999999996 0.0
6.25 0.578125 0.0
6.5 0.6080000000000005 0.0
6.75 0.6408749999999999 0.0
7.0 0.6760000000000002 0.0
7.25 0.7126249999999992 0.0
7.5 0.75 0.0
7.75 0.7873750000000004 0.0
8.0 0.8239999999999994 0.0
8.25 0.8591250000000001 0.0
8.5 0.8919999999999999 0.0
8.75 0.921875 0.0
9.0 0.9479999999999991 0.0
9.25 0.9696250000000011 0.0
9.5 0.9859999999999984 0.0
9.75 0.9963750000000013 0.0
10.0 1.0 0.0
0.0 0.0 0.0
10.0 0.0 0.0
0.124999999999674 1.994562500000014 0.0
0.3749999999999947 1.973562500000001 0.0
0.6249999999999918 1.933437500000002 0.0
0.874999999999979 1.876437500000006 0.0
1.124999999999963 1.804812500000012 0.0
1.374999999999944 1.72081250000002 0.0
1.624999999999985 1.626687500000006 0.0
1.874999999999953 1.52468750000002 0.0
2.124999999999936 1.417062500000028 0.0
2.374999999999952 1.306062500000022 0.0
2.624999999999919 1.193937500000036 0.0
2.87499999999992 1.082937500000035 0.0
3.124999999999946 0.9753125000000229 0.0
3.374999999999948 0.8733125000000204 0.0
3.624999999999972 0.77918750000001 0.0
3.874999999999963 0.6951875000000118 0.0
4.124999999999968 0.6235625000000082 0.0
4.394409538298571 0.5627485257243309 0.0
4.583333333333322 0.5316250000000015 0.0
4.666666666666668 0.5212499999999999 0.0
4.833333333333334 0.50725 0.0
4.916666666666667 0.503625 0.0
5.083333333333334 0.5012083333333335 0.0
5.166666666666666 0.502416666666667 0.0
5.333333333333334 0.5070833333333337 0.0
5.416666666666667 0.510541666666667 0.0
5.583333333333334 0.5194583333333336 0.0
5.666666666666666 0.5249166666666669 0.0
5.833333333333338 0.5375833333333339 0.0
5.916666666666661 0.544791666666666 0.0
6.105781577147724 0.5630541748119369 0.0
6.375 0.5930625000000003 0.0
6.624999999999988 0.6244374999999988 0.0
6.874999999999994 0.6584374999999991 0.0
7.125 0.6943124999999997 0.0
7.375 0.7313124999999996 0.0
7.624999999999994 0.7686874999999992 0.0
7.875 0.8056874999999999 0.0
8.125 0.8415624999999998 0.0
8.374999999999991 0.8755624999999989 0.0
8.624999999999995 0.9069374999999993 0.0
8.874999999999995 0.9349374999999991 0.0
9.125 0.9588125000000001 0.0
9.375 0.9778124999999998 0.0
9.625 0.9911874999999999 0.0
9.875 0.9981875000000007 0.0
0.0 1.799999999999167 0.0
0.0 1.6 0.0
0.0 1.400000000001387 0.0
0.0 1.200000000002774 0.0
0.0 1.000000000004117 0.0
0.0 0.8000000000033287 0.0
0.0 0.6000000000024965 0.0
0.0 0.4000000000016644 0.0
0.0 0.200000000000832 0.0
0.199999999999856 0.0 0.0
0.3999999999996677 0.0 0.0
0.5999999999994683 0.0 0.0
0.7999999999993286 0.0 0.0
0.9999999999991888 0.0 0.0
1.199999999999033 0.0 0.0
1.399999999998576 0.0 0.0
1.599999999997992 0.0 0.0
1.799999999997408 0.0 0.0
1.999999999996825 0.0 0.0
2.199999999996241 0.0 0.0
2.399999999995657 0.0 0.0
2.599999999995073 0.0 0.0
2.79999999999449 0.0 0.0
2.999999999993906 0.0 0.0
3.199999999993322 0.0 0.0
3.399999999992738 0.0 0.0
3.599999999992154 0.0 0.0
3.799999999991571 0.0 0.0
3.999999999991022 0.0 0.0
4.199999999991187 0.0 0.0
4.399999999991491 0.0 0.0
4.599999999991795 0.0 0.0
4.799999999992099 0.0 0.0
4.999999999992403 0.0 0.0
5.199999999992706 0.0 0.0
5.39999999999301 0.0 0.0
5.599999999993313 0.0 0.0
5.799999999993618 0.0 0.0
5.999999999993922 0.0 0.0
6.199999999994227 0.0 0.0
6.39999999999453 0.0 0.0
6.599999999994833 0.0 0.0
6.799999999995138 0.0 0.0
6.999999999995442 0.0 0.0
7.199999999995747 0.0 0.0
7.39999999999605 0.0 0.0
7.599999999996353 0.0 0.0
7.799999999996658 0.0 0.0
7.999999999996962 0.0 0.0
8.199999999997265 0.0 0.0
8.399999999997569 0.0 0.0
8.599999999997873 0.0 0.0
8.799999999998176 0.0 0.0
8.99999999999848 0.0 0.0
9.199999999998786 0.0 0.0
9.399999999999089 0.0 0.0
9.599999999999392 0.0 0.0
9.799999999999697 0.0 0.0
10.0 0.1999999999995579 0.0
10.0 0.3999999999989749 0.0
10.0 0.5999999999989468 0.0
10.0 0.7999999999994734 0.0
0.913963423524136 0.9126937851647636 0.0
1.629657910441747 0.8286436141773268 0.0
2.300136613917738 0.6369890708869279 0.0
0.5989085226155619 1.38125543468559 0.0
1.274155622640533 1.242773398230304 0.0
2.860215383945273 0.5217401976756945 0.0
9.469653920408135 0.4910067017840992 0.0
8.984679546317787 0.4696119782494839 0.0
8.499397693277212 0.4463630640980716 0.0
3.270918412356206 0.4522692359356972 0.0
1.223039611612243 0.5146439900227544 0.0
2.024812732135938 1.00818256045515 0.0
0.5365376864627701 0.5434316309416508 0.0
8.114834335444021 0.4602948767329583 0.0
7.742261962994204 0.4117304941858466 0.0
0.9443382341364558 1.456061359265878 0.0
1.665275621558886 1.201744468407863 0.0
1.89566112584099 0.4397284596316843 0.0
3.691409759982064 0.3560936332572802 0.0
7.368457390036411 0.3792926046732459 0.0
0.5071184951703254 0.9340893429149442 0.0
0.3822273842356539 1.647625881691675 0.0
5.916285335387544 0.2564903116750689 0.0
5.628860531758535 0.2582323053999509 0.0
5.380471017960128 0.2502349014663197 0.0
5.139244585769944 0.2549145445969738 0.0
2.686085237972266 0.8031095648160084 0.0
4.507599040026292 0.263176944655695 0.0
6.983755234374982 0.3380000000001097 0.0
9.720925955181613 0.6635813325201156 0.0
1.288006195687152 0.8759679848503046 0.0
9.20556379558699 0.6923669083350594 0.0
2.319913492084225 0.9512500928262699 0.0
8.73203612228155 0.6151508464420534 0.0
4.868679481352366 0.2526598053940744 0.0
4.10358044398202 0.3012437332986487 0.0
6.602422946953217 0.3126221952225479 0.0
2.534693527909069 0.3583319619586092 0.0
6.193332317503376 0.2894654215336858 0.0
0.8804088217382579 0.3735513844182569 0.0
0.7663303172393539 1.679065267574722 0.0
3.081211528283084 0.6968015573146217 0.0
1.241762689885858 1.521465072418641 0.0
1.573472750763779 0.3374689934575129 0.0
1.475107933015155 1.403918544935278 0.0
0.8212739503602162 1.195790902469637 0.0
4.681049549092561 0.3558177014380842 0.0
9.439519900118443 0.7366884444350511 0.0
2.201393787062887 0.3261463175998884 0.0
2.015369189818184 0.7109460688851087 0.0
8.32727069655695 0.6360373328685593 0.0
8.961488632119996 0.7119124617705204 0.0
9.22773266034565 0.3109430611770705 0.0
0.3000513553073295 1.178778127105867 0.0
1.91985473842554 1.233084801189704 0.0
8.749827252515535 0.3049638092131281 0.0
3.50551132590258 0.5576614504134195 0.0
3.040500962406976 0.290446660105673 0.0
9.72097519930939 0.3037986529514364 0.0
0.3073166349239687 0.3249300260882615 0.0
0.2948185331392187 0.7229775107826154 0.0
1.46029425821417 1.06552904833304 0.0
0.8085718129253527 0.673531272847494 0.0
7.913326191751847 0.5738936378911789 0.0
8.295349499871781 0.2556682497524391 0.0
4.31359646688283 0.3665214152100782 0.0
7.542842082022704 0.5249918217576657 0.0
1.058357552227335 1.116692590939024 0.0
2.214297272750292 1.159898327391242 0.0
2.901187336648686 0.8282146771898153 0.0
3.933498145061447 0.4325241689837319 0.0
7.956006969037984 0.2667411694088205 0.0
7.172393179434975 0.4835114022190097 0.0
1.440243631802057 0.6689433452646625 0.0
3.458541882144431 0.2581755850286561 0.0
5.791617360065465 0.3978542524532168 0.0
5.981529865241493 0.3900667299390458 0.0
1.083462543944253 0.7203994120564634 0.0
1.78518471978951 1.008552691762234 0.0
2.77360122246243 0.2689852172070111 0.0
2.565134389978369 0.9928826788184764 0.0
2.543046005790158 0.6034091352176242 0.0
3.293038780485421 0.6769811703257343 0.0
6.790787388653942 0.4353933509634578 0.0
1.140204059461831 0.2538227257007896 0.0
0.6242104065654487 0.2738473600765566 0.0
6.393430278703709 0.3766405270445946 0.0
8.533059390324546 0.6950580701614406 0.0
0.9961263693263854 1.612128843772703 0.0
1.697598586607002 0.5781950992180334 0.0
8.087930458724863 0.6517815437732153 0.0
0.2748906317360928 1.770749713716887 0.0
0.5785110002099415 1.757022387413085 0.0
5.550004842562332 0.3852675728674634 0.0
4.948161884155141 0.3480305424737933 0.0
1.741244734175577 1.381979611033466 0.0
5.312408927381063 0.3621256994047111 0.0
0.2492139438157334 1.453132031680879 0.0
7.597720022451821 0.2370268512906596 0.0
9.471021754366422 0.2472916581956264 0.0
7.714083843672875 0.600212897672991 0.0
4.520815862079482 0.3946753115680038 0.0
2.47356661122767 0.8007389356831706 0.0
7.325494311403363 0.528948935030723 0.0
7.147005275585743 0.2709670165999667 0.0
3.758046446289313 0.5474783841545341 0.0
3.893717059615281 0.1664960777568404 0.0
2.152835534199412 0.8614028741175742 0.0
8.995993312441625 0.1933410497113667 0.0
1.077676137392001 1.368204555688504 0.0
0.2429906229817933 0.9816066505657851 0.0
0.6261765586985547 1.180540007244081 0.0
9.81151801018651 0.816223424030724 0.0
0.6725442903064565 0.8425384371773644 0.0
1.74584086891446 0.2617492458514414 0.0
0.7667820686164357 1.440842670056678 0.0
8.539133693395232 0.1910926418035274 0.0
5.129145653242096 0.3632579123815574 0.0
6.816538849831732 0.2013284992826486 0.0
2.108503954619862 0.5359795950847274 0.0
6.933669557130528 0.4980836483776163 0.0
3.071406705674529 0.4919421055852253 0.0
2.001240035874449 0.2292738462614773 0.0
4.782473531509697 0.4061213127162872 0.0
0.5734126310178208 1.536352720889636 0.0
9.796714529589472 0.4898048068674991 0.0
5.678359041645315 0.373719883316694 0.0
5.427661572827738 0.3646059266294788 0.0
2.075214597532947 1.226969224366912 0.0
3.251521478555126 0.2637671977660283 0.0
2.722180837291864 0.9710783334409533 0.0
9.333262390342384 0.8479609887828539 0.0
1.367251332770493 0.2041553944563636 0.0
1.870721433742522 0.7905989208842599 0.0
1.387906762913351 1.555741687747287 0.0
9.559918612869 0.8444052974080497 0.0
9.286795039366257 0.4698254290795815 0.0
1.507117480770146 1.225129516597721 0.0
[...]
POINT_DATA 600

VECTORS Velocity float
0.0000000000000000 0.0000000000000000 0.0
0.0000000000000000 0.0000000000000000 0.0
0.0000000000000000 0.0000000000000000 0.0
0.0000000000000000 0.0000000000000000 0.0
0.0000000000000000 0.0000000000000000 0.0
0.0000000000000000 0.0000000000000000 0.0
0.0000000000000000 0.0000000000000000 0.0
0.0000000000000000 0.0000000000000000 0.0
0.0000000000000000 0.0000000000000000 0.0
0.0000000000000000 0.0000000000000000 0.0
0.0000000000000000 0.0000000000000000 0.0
0.0000000000000000 0.0000000000000000 0.0
0.0000000000000000 0.0000000000000000 0.0
0.0000000000000000 0.0000000000000000 0.0
0.0000000000000000 0.0000000000000000 0.0
0.0000000000000000 0.0000000000000000 0.0
0.0000000000000000 0.0000000000000000 0.0
0.0000000000000000 0.0000000000000000 0.0
0.0000000000000000 0.0000000000000000 0.0
0.0000000000000000 0.0000000000000000 0.0
0.0000000000000000 0.0000000000000000 0.0
0.0000000000000000 0.0000000000000000 0.0
0.0000000000000000 0.0000000000000000 0.0
0.0000000000000000 0.0000000000000000 0.0
0.0000000000000000 0.0000000000000000 0.0
0.0000000000000000 0.0000000000000000 0.0
0.0000000000000000 0.0000000000000000 0.0
0.0000000000000000 0.0000000000000000 0.0
0.0000000000000000 0.0000000000000000 0.0
0.0000000000000000 0.0000000000000000 0.0
0.0000000000000000 0.0000000000000000 0.0
0.0000000000000000 0.0000000000000000 0.0
0.0000000000000000 0.0000000000000000 0.0
0.0000000000000000 0.0000000000000000 0.0
0.0000000000000000 0.0000000000000000 0.0
0.0000000000000000 0.0000000000000000 0.0
0.0000000000000000 0.0000000000000000 0.0
0.0000000000000000 0.0000000000000000 0.0
0.0000000000000000 0.0000000000000000 0.0
0.0000000000000000 0.0000000000000000 0.0
0.0000000000000000 0.0000000000000000 0.0
0.0000000000000000 0.0000000000000000 0.0
0.8242833572886803 -0.1315573316664047 0.0
0.0000000000000000 0.0000000000000000 0.0
0.0000000000000000 0.0000000000000000 0.0
0.0000000000000000 0.0000000000000000 0.0
0.0000000000000000 0.0000000000000000 0.0
0.0000000000000000 0.0000000000000000 0.0
0.0000000000000000 0.0000000000000000 0.0
0.0000000000000000 0.0000000000000000 0.0
0.0000000000000000 0.0000000000000000 0.0
0.0000000000000000 0.0000000000000000 0.0
0.0000000000000000 0.0000000000000000 0.0
0.0000000000000000 0.0000000000000000 0.0
0.0000000000000000 0.0000000000000000 0.0
0.0000000000000000 0.0000000000000000 0.0
0.0000000000000000 0.0000000000000000 0.0
0.0000000000000000 0.0000000000000000 0.0
0.0000000000000000 0.0000000000000000 0.0
0.0000000000000000 0.0000000000000000 0.0
0.0000000000000000 0.0000000000000000 0.0
0.0000000000000000 0.0000000000000000 0.0
0.0000000000000000 0.0000000000000000 0.0
0.0000000000000000 0.0000000000000000 0.0
0.0000000000000000 0.0000000000000000 0.0
0.0000000000000000 0.0000000000000000 0.0
0.0000000000000000 0.0000000000000000 0.0
0.0000000000000000 0.0000000000000000 0.0
0.0000000000000000 0.0000000000000000 0.0
0.0000000000000000 0.0000000000000000 0.0
0.0000000000000000 0.0000000000000000 0.0
0.0000000000000000 0.0000000000000000 0.0
0.0000000000000000 0.0000000000000000 0.0
0.0000000000000000 0.0000000000000000 0.0
0.0000000000000000 0.0000000000000000 0.0
0.0000000000000000 0.0000000000000000 0.0
0.0000000000000000 0.0000000000000000 0.0
0.0000000000000000 0.0000000000000000 0.0
0.0000000000000000 0.0000000000000000 0.0
0.0000000000000000 0.0000000000000000 0.0
0.0000000000000000 0.0000000000000000 0.0
0.0000000000000000 0.0000000000000000 0.0
0.0000000000000000 0.0000000000000000 0.0
0.0000000000000000 0.0000000000000000 0.0
0.0000000000000000 0.0000000000000000 0.0
0.0000000000000000 0.0000000000000000 0.0
0.0000000000000000 0.0000000000000000 0.0
0.0000000000000000 0.0000000000000000 0.0
0.0000000000000000 0.0000000000000000 0.0
1.0000000000000000 0.0000000000000000 0.0
1.0000000000000000 0.0000000000000000 0.0
1.0000000000000000 0.0000000000000000 0.0
1.0000000000000000 0.0000000000000000 0.0
1.0000000000000000 0.0000000000000000 0.0
1.0000000000000000 0.0000000000000000 0.0
1.0000000000000000 0.0000000000000000 0.0
1.0000000000000000 0.0000000000000000 0.0
1.0000000000000000 0.0000000000000000 0.0
0.0000000000000000 0.0000000000000000 0.0
0.0000000000000000 0.0000000000000000 0.0
0.0000000000000000 0.0000000000000000 0.0
0.0000000000000000 0.0000000000000000 0.0
0.0000000000000000 0.0000000000000000 0.0
0.0000000000000000 0.0000000000000000 0.0
0.0000000000000000 0.0000000000000000 0.0
0.0000000000000000 0.0000000000000000 0.0
0.0000000000000000 0.0000000000000000 0.0
0.0000000000000000 0.0000000000000000 0.0
0.0000000000000000 0.0000000000000000 0.0
0.0000000000000000 0.0000000000000000 0.0
0.0000000000000000 0.0000000000000000 0.0
0.0000000000000000 0.0000000000000000 0.0
0.0000000000000000 0.0000000000000000 0.0
0.0000000000000000 0.0000000000000000 0.0
0.0000000000000000 0.0000000000000000 0.0
0.0000000000000000 0.0000000000000000 0.0
0.0000000000000000 0.0000000000000000 0.0
0.0000000000000000 0.0000000000000000 0.0
0.0000000000000000 0.0000000000000000 0.0
0.0000000000000000 0.0000000000000000 0.0
0.0000000000000000 0.0000000000000000 0.0
0.0000000000000000 0.0000000000000000 0.0
0.0000000000000000 0.0000000000000000 0.0
0.0000000000000000 0.0000000000000000 0.0
0.0000000000000000 0.0000000000000000 0.0
0.0000000000000000 0.0000000000000000 0.0
0.0000000000000000 0.0000000000000000 0.0
0.0000000000000000 0.0000000000000000 0.0
0.0000000000000000 0.0000000000000000 0.0
0.0000000000000000 0.0000000000000000 0.0
0.0000000000000000 0.0000000000000000 0.0
0.0000000000000000 0.0000000000000000 0.0
0.0000000000000000 0.0000000000000000 0.0
0.0000000000000000 0.0000000000000000 0.0
0.0000000000000000 0.0000000000000000 0.0
0.0000000000000000 0.0000000000000000 0.0
0.0000000000000000 0.0000000000000000 0.0
0.0000000000000000 0.0000000000000000 0.0
0.0000000000000000 0.0000000000000000 0.0
0.0000000000000000 0.0000000000000000 0.0
0.0000000000000000 0.0000000000000000 0.0
0.0000000000000000 0.0000000000000000 0.0
0.0000000000000000 0.0000000000000000 0.0
0.0000000000000000 0.0000000000000000 0.0
0.0000000000000000 0.0000000000000000 0.0
0.0000000000000000 0.0000000000000000 0.0
0.0000000000000000 0.0000000000000000 0.0
1.0711155310076208 -0.4636134063504909 0.0
0.9661273676260285 -0.1973257125264344 0.0
0.9839964793250056 -0.0303918015155704 0.0
1.0703604750089564 0.3854802754279157 0.0
1.3808070615986832 0.0047982402133321 0.0
1.4665811247455309 -0.0937261448266638 0.0
1.4644169862384844 -0.1856096873952102 0.0
1.2352699570202443 -0.1180133780531049 0.0
1.3341848818371438 -0.0771624514952211 0.0
1.5303341772222536 -0.1162687457480480 0.0
1.5891912417977827 -0.0300190629786024 0.0
1.5329045077501051 0.0202890511165228 0.0
1.5837109898162240 0.0977342237548323 0.0
1.5104938503467635 -0.1196344924603189 0.0
1.1825957242696110 0.0033861079477418 0.0
1.3565869095930818 -0.0973936854282754 0.0
1.2332642209162812 0.2422473002369671 0.0
1.5842941979181502 0.0722694974394584 0.0
1.5629586087979221 0.0085295481765253 0.0
1.1473083060042335 -0.0448298944853849 0.0
1.2553338742269757 -0.0192586556660608 0.0
1.1461638215427954 -0.0657480737970881 0.0
1.5272865888096003 -0.0566236298115609 0.0
1.5805114315520505 0.0549725466190017 0.0
1.2189705298092399 0.0958731894748633 0.0
1.1308877138766693 -0.2507624757284712 0.0
1.4956642373118418 0.0145120615349014 0.0
1.4956294091947420 -0.0177557116419138 0.0
1.5252569563254752 0.0356072147019586 0.0
1.5472117323883894 0.0132572462922376 0.0
1.3231422713509748 -0.1148318981599761 0.0
1.4872637408083373 0.0098814418515463 0.0
1.6541201357442323 0.0257287557604907 0.0
1.3605325395321455 0.1310219002355202 0.0
1.4580334241686979 -0.0459140559929903 0.0
1.3828079420313530 -0.0480038671481699 0.0
1.3356818621559581 -0.1404787211661631 0.0
1.5107309210775135 0.0928484053136400 0.0
1.5118294187409371 0.0023463447378782 0.0
1.6249344697356007 -0.1065335214881348 0.0
1.6830029389316992 -0.0380891241841252 0.0
1.2023052013972848 -0.1007611372002146 0.0
1.5893204891458925 -0.0202427884856051 0.0
0.9702903514060128 0.0636879151068349 0.0
0.8505854536254829 0.0361581099660475 0.0
1.3814537864368781 -0.0459145674143624 0.0
0.8695488482729983 0.0373592616761798 0.0
0.8551276114202186 -0.0528021093963766 0.0
0.9823065534833914 0.0533865209641118 0.0
1.3350411448338284 -0.0544939381395871 0.0
1.8004490919117218 -0.1359254196748598 0.0
1.2799781057498565 0.0005906926731717 0.0
0.9791001048718793 -0.0703359671228253 0.0
1.4570285761573523 -0.1145095448487402 0.0
1.3651074491774304 0.0414347603522941 0.0
1.3281402565122797 0.0011298833208520 0.0
1.2166472711420775 -0.0204496678160556 0.0
1.0874045114675648 -0.0786205857044733 0.0
1.0583805943348079 0.0269904966994261 0.0
1.2484486339527276 0.0244392729924340 0.0
1.4508539761716284 -0.0619006493812720 0.0
1.2281154573803439 -0.0301810750079719 0.0
1.2029183618396546 -0.2091376194640188 0.0
1.1240940060983875 0.3442806630405683 0.0
1.1020592518441954 0.2062903912476908 0.0
1.4503729281133706 -0.0775771967749884 0.0
1.3061030073091695 0.1050084936544647 0.0
1.3997932598688474 0.0534551875547358 0.0
1.2317912342666910 0.0222609657570489 0.0
1.7382895482970113 0.0681404978527002 0.0
1.4842584114782666 -0.0103976164271328 0.0
1.4009916991655227 -0.0589645634870948 0.0
0.9111188126844728 0.0204007348027335 0.0
1.0961932196208701 -0.0120842503172791 0.0
1.6052748518818558 -0.1341869143900580 0.0
1.3114442012902292 0.0490318728019163 0.0
1.4481449698350350 0.0720074136544801 0.0
1.3930060578922434 -0.0573752541328248 0.0
1.2411291139943441 -0.0434915158878430 0.0
1.5391523964479710 -0.0425441575508499 0.0
1.6093904605527707 0.0403934392721043 0.0
1.3899721331748418 0.0215726315236386 0.0
1.4239067936460414 -0.0896193358269423 0.0
1.0769665458500761 -0.0942124859527604 0.0
0.9720564523605946 0.0086684701211448 0.0
1.5162277146857011 -0.1809705276569249 0.0
1.2376310729747868 -0.0967808423609617 0.0
1.5845220652333574 0.0135164783791710 0.0
0.5792599612726085 0.0295006436811325 0.0
0.8580576873663072 0.1034748309563533 0.0
1.6626066374203321 0.0133801848001037 0.0
1.2479907489043633 -0.0065448443697730 0.0
0.8547242248806858 0.0340673910595658 0.0
1.3208714714806646 -0.1038090881301576 0.0
1.1913786539374458 0.0055820438667189 0.0
1.1049136996660764 -0.2821513547032993 0.0
0.8080565850177069 0.0371542451616155 0.0
1.5946629021830092 0.0114416817161148 0.0
1.6645600357549690 -0.0092257349431382 0.0
0.8284142808101294 0.1081792298630389 0.0
1.6078994019778139 0.0561174045487228 0.0
1.0898287898477796 -0.2250351014161362 0.0
1.2210188211430739 0.0323893713381919 0.0
1.0970806718418298 -0.0421673291238343 0.0
1.2307312088070417 0.0142484452463866 0.0
1.6700002993889669 -0.0217099874105794 0.0
1.4482930331336987 -0.2139531463749609 0.0
1.4482690226390111 0.0457470486644359 0.0
1.4481387931875869 0.0889810517113511 0.0
1.3490541838700034 -0.0518513724134924 0.0
0.7453247156593523 -0.0908639895479917 0.0
1.4503437250730493 -0.1555189678619272 0.0
0.6545709451898601 -0.0047975526422012 0.0
1.2336757632738775 -0.0571308900807411 0.0
1.0558051153968953 0.0168721991391406 0.0
1.2734850701537772 -0.0329490215051933 0.0
1.1679912203610461 0.2323620468011095 0.0
1.3016019459859871 0.1007509627525549 0.0
0.7040319849025828 -0.0017524809729088 0.0
1.2121792152085686 -0.0791730469732414 0.0
0.7059186815392126 0.0044721168278794 0.0
1.6562253689983710 0.0019159067884465 0.0
1.0150847928307547 0.0772664184942981 0.0
1.3451982464348227 -0.1342747355098731 0.0
1.1381708449194996 0.0014640254546146 0.0
1.4865984188858570 -0.1419336699172478 0.0
0.5541250033388180 -0.0449643828946540 0.0
1.1806558677486516 -0.0784315572158108 0.0
1.1786176827137624 -0.1234802414839280 0.0
1.2865900489763953 -0.1036322866551324 0.0
1.6372062844397932 -0.0138848467851695 0.0
1.6047368821444643 0.0503227181888325 0.0
0.8887418745404824 0.0808525768255926 0.0
1.2408593586483314 -0.0445388185530363 0.0
0.7444338008153510 0.1117059039691711 0.0
0.5925661315668137 -0.0027344431697647 0.0
0.4276767881173771 0.0223367356473620 0.0
1.4546897313824836 -0.1051860711534966 0.0
0.5621187943016765 0.1763761393969110 0.0
0.7003864581941673 -0.0057165817964248 0.0
1.5613583435972263 0.0250701942894275 0.0
1.2875765599613360 -0.0521029060681031 0.0
1.2093962139809635 -0.0404937331709288 0.0
1.5677016690905903 0.0689934229841836 0.0
1.4354464353995493 -0.0685527985657611 0.0
1.5716246756761463 0.0289196956837321 0.0
1.1832280887794817 0.0547926179162320 0.0
1.1122325286522827 -0.2576013682731232 0.0
1.2246755011452470 0.1818373785849122 0.0
1.1076339395556121 0.2398983932798758 0.0
1.0737856418495577 -0.0461836613587996 0.0
1.1845211360040417 0.0250728088800199 0.0
0.9319350945944760 0.0424835622569972 0.0
0.5854223884596602 0.1590279385465015 0.0
0.9917733097393940 -0.0116522542550302 0.0
1.4295733797863641 -0.0412354824275341 0.0
0.7658784882103181 0.0675571207064095 0.0
1.1912085269037629 0.0614801951997081 0.0
1.4749828358021553 -0.0712013435317145 0.0
0.8821812669148642 -0.0224628568937265 0.0
1.2623961036528213 0.0305123645132955 0.0
1.5257180794178531 0.0511635185209598 0.0
1.1884396309541194 -0.1970923185621056 0.0
1.3129154188444923 -0.1110078137462679 0.0
0.5196805682010961 0.1545287567406158 0.0
0.5181724267613287 0.1238997035339000 0.0
0.8397369213870249 -0.0136824409684183 0.0
1.4740544403631606 -0.0809781158375963 0.0
1.4648192680418290 -0.0878980486523255 0.0
0.5511249830388886 0.1777382330950547 0.0
0.6874179315235894 -0.0608773665061604 0.0
1.1214076828742536 0.0212620733850521 0.0
1.4667238653815549 -0.1160807536190364 0.0
0.9854415940300808 -0.0136696873280033 0.0
1.3284405787883400 0.0098971926238820 0.0
1.3996603700697599 -0.0969890219012056 0.0
0.9657513935261722 0.0082061152120692 0.0
0.8751076751904689 0.0705265816528632 0.0
1.3265359213695402 -0.0011999108301970 0.0
0.7687812957514657 -0.0260514494741415 0.0
1.5634893651468633 -0.0255428506479267 0.0
0.7659494925219800 0.0219884433582476 0.0
0.7725478546815649 -0.0297873981589721 0.0
1.2953197089075685 -0.0800533773777273 0.0
1.4017849803551736 -0.0125470592927411 0.0
0.9899230192892634 0.0114848726543855 0.0
0.5951141748585984 0.1972200774786044 0.0
0.9124329279061932 -0.0048079036264624 0.0
1.1463747019810939 -0.0540399890578419 0.0
0.8132632823872828 0.0986018172714073 0.0
1.1667362198498463 0.1502140486239887 0.0
1.0759268499563621 -0.0092914518118107 0.0
0.6809956705938760 0.0184322315695666 0.0
1.5259305778319905 -0.0212114078521467 0.0
0.9043345354760004 -0.0121891270108355 0.0
1.5496345198218457 -0.0264640860937435 0.0
0.4208836822101878 -0.0318622860248721 0.0
1.4664524940691510 -0.1713566136930197 0.0
1.6023074688624002 -0.0121495145440301 0.0
0.5456401056743940 0.1182200461315313 0.0
0.7790875044663872 -0.0246587493380733 0.0
1.5844943098159030 0.0679751439533314 0.0
0.9345682177810055 0.0950687444589828 0.0
1.5623021990371848 0.0579213416186631 0.0
0.9773842364935335 -0.0056119254299570 0.0
0.8000643784689622 -0.0598581487519926 0.0
0.6712351181017949 -0.0373107930361167 0.0
1.0207137538537525 -0.0256877396917864 0.0
1.0039474372026296 0.0297727100768013 0.0
1.4549299108597216 0.0139012401021682 0.0
0.5586775006082063 0.0373949621407681 0.0
0.8826393168738930 -0.0616256851388387 0.0
0.8522088962340993 0.0504890074212595 0.0
1.4234029311364593 0.0803886706542194 0.0
0.8010060931844126 -0.1998887228022582 0.0
0.8300761797351057 -0.0259168461000127 0.0
0.5226597616282863 -0.0487192615745982 0.0
1.0350347002486440 0.0311390280826781 0.0
0.7089669198566884 0.2006574455900576 0.0
0.9033330970799769 0.0437795747687325 0.0
1.2678850393238168 -0.1148671565930426 0.0
0.7624122715228910 -0.0188216697465541 0.0
0.9011189629920650 -0.0016043622852356 0.0
0.9818927167387944 -0.0065289604434573 0.0
0.7924967444767861 -0.0312856100656698 0.0
0.7695268083257573 -0.0443240752944622 0.0
1.4940683640387775 0.0251623960304651 0.0
0.8007722152866176 -0.0314597114262384 0.0
1.0390828332090896 -0.0872406071257833 0.0
0.8394447974134565 0.0547831115036413 0.0
1.2931884379055449 -0.0298637445850322 0.0
0.6324103980212250 -0.0195474044772654 0.0
0.3848537368365364 0.0052400083416818 0.0
1.1923455961939908 -0.1086948793209539 0.0
0.8368187406438273 0.1030161335094435 0.0
0.7951663466258619 -0.0163625435730153 0.0
0.9606655696674250 0.0559470541137481 0.0
1.3678433872893643 -0.0330793468746191 0.0
0.6539552803778372 -0.0213772027399473 0.0
1.2165502437728071 0.1884148389042716 0.0
1.5036060111740359 0.0068688332781507 0.0
0.7108352476608525 -0.0127569824236102 0.0
1.1434531861702855 0.0043240483112873 0.0
1.2789844145267704 -0.0705160670323511 0.0
1.0770221682006655 -0.0543776285278901 0.0
1.4537096143572765 -0.1285392323861651 0.0
0.4610808819892089 0.2162492140899014 0.0
1.7302835313344289 0.0213368364922621 0.0
1.3723927651922205 0.0374515716647692 0.0
0.5558478286372718 0.0509121231703159 0.0
1.4744286273639513 -0.1553966920622584 0.0
1.5160842603294635 -0.0880302667085732 0.0
0.6338164671312990 -0.0077258729247086 0.0
1.0258870634659598 -0.0183520786900418 0.0
0.6730551594848190 -0.0388295210830665 0.0
0.9512841442061660 -0.0773533399126878 0.0
0.7842177873264315 -0.0530730213374073 0.0
0.3932468690869722 0.2176106133604696 0.0
1.1171407752728921 0.2540942401667733 0.0
1.5950864296874576 0.0094064370377388 0.0
0.5787957653314073 0.2217754524901626 0.0
1.5777206800155279 -0.0633796884623377 0.0
1.7460791184289735 0.0987110310705628 0.0
0.5368827838098789 0.2171220046539447 0.0
1.4839966792488313 0.0469746866579456 0.0
1.4149091322714964 -0.1366707962928244 0.0
0.9238751248678370 0.2508461019132068 0.0
1.2877765839638635 -0.0208590631709642 0.0
1.3178709808498450 0.0221202499042611 0.0
0.7802834765889902 0.0898360037854962 0.0
1.3383303923987160 -0.1168410917198055 0.0
0.6953828130513082 -0.0566050541615759 0.0
0.5742625508254027 0.2018872746504662 0.0
0.3997972908689104 0.0199253739274709 0.0
1.1975965394490120 -0.0172988006506994 0.0
0.8836516061865858 -0.2762533213216238 0.0
1.4212035558475822 0.1019761208838165 0.0
1.2970760005815303 -0.1125908894683188 0.0
0.5594940580652150 -0.0119716243410406 0.0
0.5800390609295251 0.0490284780028204 0.0
0.6991366935175306 0.0180653398870287 0.0
1.1687474674241300 -0.0022752854122381 0.0
1.2026075892693968 0.3091760577927799 0.0
0.5620486424425025 -0.0326368088892383 0.0
1.1205984114051528 -0.0659462983586859 0.0
0.5924635043232990 0.0404412947757114 0.0
1.5694938652478738 0.0405328887092422 0.0
0.4522731447017730 0.2531820553018397 0.0
0.7400235289336263 -0.1224017948649382 0.0
1.5419949620545594 -0.0450268186624819 0.0
1.2523124565023631 0.0390134317193456 0.0
1.5361504939490929 -0.1410603481396112 0.0
0.6832466167332630 0.0059935438254808 0.0
0.8721474553590580 -0.0342385408166725 0.0
1.4591670520403661 -0.1039232147405033 0.0
1.4280779019430363 -0.0898714441616470 0.0
1.0267785112607510 0.0658198591003310 0.0
1.4504148348034569 0.0378685239955124 0.0
1.3444314592575997 -0.0663959105710532 0.0
1.2796740761560796 0.1626292237308439 0.0
0.8199251026922364 -0.0073285072809739 0.0
0.7445290205605832 -0.0212800226503882 0.0
0.6768702697661515 -0.0462772043833362 0.0
1.3206753220602478 -0.0663663529719832 0.0
1.3306045527163124 -0.0811621752194752 0.0
1.1513401387386262 0.1214923150964162 0.0
0.3295845597642986 0.0317477556635905 0.0
1.4389086376609397 -0.0918791394761294 0.0
0.2963869197563727 0.1113009440404439 0.0
0.6916703858988762 0.1211740954559419 0.0
1.0478571195809270 0.0481120805447168 0.0
0.5382311803469219 -0.1144192879166803 0.0
1.1460072593137598 -0.3177029596094591 0.0
1.4033456631454091 -0.0735478291881877 0.0
1.6093890159657787 -0.0188534143680791 0.0
0.7315452413725002 0.1117020747748190 0.0
1.5207659505671496 -0.0623715314645629 0.0
0.9321671552049298 -0.0331196018940531 0.0
1.4102484486130387 -0.0638552051427899 0.0
0.9338424902244853 -0.0255135391302171 0.0
0.4821249572614686 0.2145001698542054 0.0
0.9083167476414807 -0.0554579496838594 0.0
1.0263136293084956 -0.0642765820953833 0.0
1.5685776693974982 -0.0456998565982347 0.0