# vtk DataFile Version 3.0
LucasCarvalhoTCC Results
ASCII

DATASET POLYDATA
FIELD FieldData 1
TIME 1 1 double
2.4000000000000004

POINTS 600 float
0.0 2.0 0.0
0.25 1.989125 0.0
0.5 1.958 0.0
0.75 1.908875 0.0
1.0 1.844 0.0
1.25 1.765625 0.0
1.5 1.676 0.0
1.75 1.577375 0.0
2.0 1.472 0.0
2.25 1.362125 0.0
2.5 1.25 0.0
2.75 1.137875 0.0
3.0 1.028 0.0
3.25 0.922625 0.0
3.5 0.8240000000000001 0.0
3.75 0.734375 0.0
4.0 0.6560000000000001 0.0
4.25 0.5911249999999999 0.0
4.5 0.542 0.0
4.75 0.510875 0.0
5.0 0.5 0.0
5.25 0.5036250000000004 0.0
5.5 0.5140000000000002 0.0
5.75 0.5303750000000003 0.0
6.0 0.5519999999999996 0.0
6.25 0.578125 0.0
6.5 0.6080000000000005 0.0
6.75 0.6408749999999999 0.0
7.0 0.6760000000000002 0.0
7.25 0.7126249999999992 0.0
7.5 0.75 0.0
7.75 0.7873750000000004 0.0
8.0 0.8239999999999994 0.0
8.25 0.8591250000000001 0.0
8.5 0.8919999999999999 0.0
8.75 0.921875 0.0
9.0 0.9479999999999991 0.0
9.25 0.9696250000000011 0.0
9.5 0.9859999999999984 0.0
9.75 0.9963750000000013 0.0
10.0 1.0 0.0
0.0 0.0 0.0
10.0 0.0 0.0
0.124999999999674 1.994562500000014 0.0
0.3749999999999947 1.973562500000001 0.0
0.6249999999999918 1.933437500000002 0.0
0.874999999999979 1.876437500000006 0.0
1.124999999999963 1.804812500000012 0.0
1.374999999999944 1.72081250000002 0.0
1.624999999999985 1.626687500000006 0.0
1.874999999999953 1.52468750000002 0.0
2.124999999999936 1.417062500000028 0.0
2.374999999999952 1.306062500000022 0.0
2.624999999999919 1.193937500000036 0.0
2.87499999999992 1.082937500000035 0.0
3.124999999999946 0.9753125000000229 0.0
3.374999999999948 0.8733125000000204 0.0
3.624999999999972 0.77918750000001 0.0
3.874999999999963 0.6951875000000118 0.0
4.124999999999968 0.6235625000000082 0.0
4.394409538298571 0.5627485257243309 0.0
4.583333333333322 0.5316250000000015 0.0
4.666666666666668 0.5212499999999999 0.0
4.833333333333334 0.50725 0.0
4.916666666666667 0.503625 0.0
5.083333333333334 0.5012083333333335 0.0
5.166666666666666 0.502416666666667 0.0
5.333333333333334 0.5070833333333337 0.0
5.416666666666667 0.510541666666667 0.0
5.583333333333334 0.5194583333333336 0.0
5.666666666666666 0.5249166666666669 0.0
5.833333333333338 0.5375833333333339 0.0
5.916666666666661 0.544791666666666 0.0
6.105781577147724 0.5630541748119369 0.0
6.375 0.5930625000000003 0.0
6.624999999999988 0.6244374999999988 0.0
6.874999999999994 0.6584374999999991 0.0
7.125 0.6943124999999997 0.0
7.375 0.7313124999999996 0.0
7.624999999999994 0.7686874999999992 0.0
7.875 0.8056874999999999 0.0
8.125 0.8415624999999998 0.0
8.374999999999991 0.8755624999999989 0.0
8.624999999999995 0.9069374999999993 0.0
8.874999999999995 0.9349374999999991 0.0
9.125 0.9588125000000001 0.0
9.375 0.9778124999999998 0.0
9.625 0.9911874999999999 0.0
9.875 0.9981875000000007 0.0
0.0 1.799999999999167 0.0
0.0 1.6 0.0
0.0 1.400000000001387 0.0
0.0 1.200000000002774 0.0
0.0 1.000000000004117 0.0
0.0 0.8000000000033287 0.0
0.0 0.6000000000024965 0.0
0.0 0.4000000000016644 0.0
0.0 0.200000000000832 0.0
0.199999999999856 0.0 0.0
0.3999999999996677 0.0 0.0
0.5999999999994683 0.0 0.0
0.7999999999993286 0.0 0.0
0.9999999999991888 0.0 0.0
1.199999999999033 0.0 0.0
1.399999999998576 0.0 0.0
1.599999999997992 0.0 0.0
1.799999999997408 0.0 0.0
1.999999999996825 0.0 0.0
2.199999999996241 0.0 0.0
2.399999999995657 0.0 0.0
2.599999999995073 0.0 0.0
2.79999999999449 0.0 0.0
2.999999999993906 0.0 0.0
3.199999999993322 0.0 0.0
3.399999999992738 0.0 0.0
3.599999999992154 0.0 0.0
3.799999999991571 0.0 0.0
3.999999999991022 0.0 0.0
4.199999999991187 0.0 0.0
4.399999999991491 0.0 0.0
4.599999999991795 0.0 0.0
4.799999999992099 0.0 0.0
4.999999999992403 0.0 0.0
5.199999999992706 0.0 0.0
5.39999999999301 0.0 0.0
5.599999999993313 0.0 0.0
5.799999999993618 0.0 0.0
5.999999999993922 0.0 0.0
6.199999999994227 0.0 0.0
6.39999999999453 0.0 0.0
6.599999999994833 0.0 0.0
6.799999999995138 0.0 0.0
6.999999999995442 0.0 0.0
7.199999999995747 0.0 0.0
7.39999999999605 0.0 0.0
7.599999999996353 0.0 0.0
7.799999999996658 0.0 0.0
7.999999999996962 0.0 0.0
8.199999999997265 0.0 0.0
8.399999999997569 0.0 0.0
8.599999999997873 0.0 0.0
8.799999999998176 0.0 0.0
8.99999999999848 0.0 0.0
9.199999999998786 0.0 0.0
9.399999999999089 0.0 0.0
9.599999999999392 0.0 0.0
9.799999999999697 0.0 0.0
10.0 0.1999999999995579 0.0
10.0 0.3999999999989749 0.0
10.0 0.5999999999989468 0.0
10.0 0.7999999999994734 0.0
0.913963423524136 0.9126937851647636 0.0
1.629657910441747 0.8286436141773268 0.0
2.300136613917738 0.6369890708869279 0.0
0.5989085226155619 1.38125543468559 0.0
1.274155622640533 1.242773398230304 0.0
2.860215383945273 0.5217401976756945 0.0
9.469653920408135 0.4910067017840992 0.0
8.984679546317787 0.4696119782494839 0.0
8.499397693277212 0.4463630640980716 0.0
3.270918412356206 0.4522692359356972 0.0
1.223039611612243 0.5146439900227544 0.0
2.024812732135938 1.00818256045515 0.0
0.5365376864627701 0.5434316309416508 0.0
8.114834335444021 0.4602948767329583 0.0
7.742261962994204 0.4117304941858466 0.0
0.9443382341364558 1.456061359265878 0.0
1.665275621558886 1.201744468407863 0.0
1.89566112584099 0.4397284596316843 0.0
3.691409759982064 0.3560936332572802 0.0
7.368457390036411 0.3792926046732459 0.0
0.5071184951703254 0.9340893429149442 0.0
0.3822273842356539 1.647625881691675 0.0
5.916285335387544 0.2564903116750689 0.0
5.628860531758535 0.2582323053999509 0.0
5.380471017960128 0.2502349014663197 0.0
5.139244585769944 0.2549145445969738 0.0
2.686085237972266 0.8031095648160084 0.0
4.507599040026292 0.263176944655695 0.0
6.983755234374982 0.3380000000001097 0.0
9.720925955181613 0.6635813325201156 0.0
1.288006195687152 0.8759679848503046 0.0
9.20556379558699 0.6923669083350594 0.0
2.319913492084225 0.9512500928262699 0.0
8.73203612228155 0.6151508464420534 0.0
4.868679481352366 0.2526598053940744 0.0
4.10358044398202 0.3012437332986487 0.0
6.602422946953217 0.3126221952225479 0.0
2.534693527909069 0.3583319619586092 0.0
6.193332317503376 0.2894654215336858 0.0
0.8804088217382579 0.3735513844182569 0.0
0.7663303172393539 1.679065267574722 0.0
3.081211528283084 0.6968015573146217 0.0
1.241762689885858 1.521465072418641 0.0
1.573472750763779 0.3374689934575129 0.0
1.475107933015155 1.403918544935278 0.0
0.8212739503602162 1.195790902469637 0.0
4.681049549092561 0.3558177014380842 0.0
9.439519900118443 0.7366884444350511 0.0
2.201393787062887 0.3261463175998884 0.0
2.015369189818184 0.7109460688851087 0.0
8.32727069655695 0.6360373328685593 0.0
8.961488632119996 0.7119124617705204 0.0
9.22773266034565 0.3109430611770705 0.0
0.3000513553073295 1.178778127105867 0.0
1.91985473842554 1.233084801189704 0.0
8.749827252515535 0.3049638092131281 0.0
3.50551132590258 0.5576614504134195 0.0
3.040500962406976 0.290446660105673 0.0
9.72097519930939 0.3037986529514364 0.0
0.3073166349239687 0.3249300260882615 0.0
0.2948185331392187 0.7229775107826154 0.0
1.46029425821417 1.06552904833304 0.0
0.8085718129253527 0.673531272847494 0.0
7.913326191751847 0.5738936378911789 0.0
8.295349499871781 0.2556682497524391 0.0
4.31359646688283 0.3665214152100782 0.0
7.542842082022704 0.5249918217576657 0.0
1.058357552227335 1.116692590939024 0.0
2.214297272750292 1.159898327391242 0.0
2.901187336648686 0.8282146771898153 0.0
3.933498145061447 0.4325241689837319 0.0
7.956006969037984 0.2667411694088205 0.0
7.172393179434975 0.4835114022190097 0.0
1.440243631802057 0.6689433452646625 0.0
3.458541882144431 0.2581755850286561 0.0
5.791617360065465 0.3978542524532168 0.0
5.981529865241493 0.3900667299390458 0.0
1.083462543944253 0.7203994120564634 0.0
1.78518471978951 1.008552691762234 0.0
2.77360122246243 0.2689852172070111 0.0
2.565134389978369 0.9928826788184764 0.0
2.543046005790158 0.6034091352176242 0.0
3.293038780485421 0.6769811703257343 0.0
6.790787388653942 0.4353933509634578 0.0
1.140204059461831 0.2538227257007896 0.0
0.6242104065654487 0.2738473600765566 0.0
6.393430278703709 0.3766405270445946 0.0
8.533059390324546 0.6950580701614406 0.0
0.9961263693263854 1.612128843772703 0.0
1.697598586607002 0.5781950992180334 0.0
8.087930458724863 0.6517815437732153 0.0
0.2748906317360928 1.770749713716887 0.0
0.5785110002099415 1.757022387413085 0.0
5.550004842562332 0.3852675728674634 0.0
4.948161884155141 0.3480305424737933 0.0
1.741244734175577 1.381979611033466 0.0
5.312408927381063 0.3621256994047111 0.0
0.2492139438157334 1.453132031680879 0.0
7.597720022451821 0.2370268512906596 0.0
9.471021754366422 0.2472916581956264 0.0
7.714083843672875 0.600212897672991 0.0
4.520815862079482 0.3946753115680038 0.0
2.47356661122767 0.8007389356831706 0.0
7.325494311403363 0.528948935030723 0.0
7.147005275585743 0.2709670165999667 0.0
3.758046446289313 0.5474783841545341 0.0
3.893717059615281 0.1664960777568404 0.0
2.152835534199412 0.8614028741175742 0.0
8.995993312441625 0.1933410497113667 0.0
1.077676137392001 1.368204555688504 0.0
0.2429906229817933 0.9816066505657851 0.0
0.6261765586985547 1.180540007244081 0.0
9.81151801018651 0.816223424030724 0.0
0.6725442903064565 0.8425384371773644 0.0
1.74584086891446 0.2617492458514414 0.0
0.7667820686164357 1.440842670056678 0.0
8.539133693395232 0.1910926418035274 0.0
5.129145653242096 0.3632579123815574 0.0
6.816538849831732 0.2013284992826486 0.0
2.108503954619862 0.5359795950847274 0.0
6.933669557130528 0.4980836483776163 0.0
3.071406705674529 0.4919421055852253 0.0
2.001240035874449 0.2292738462614773 0.0
4.782473531509697 0.4061213127162872 0.0
0.5734126310178208 1.536352720889636 0.0
9.796714529589472 0.4898048068674991 0.0
5.678359041645315 0.373719883316694 0.0
5.427661572827738 0.3646059266294788 0.0
2.075214597532947 1.226969224366912 0.0
3.251521478555126 0.2637671977660283 0.0
2.722180837291864 0.9710783334409533 0.0
9.333262390342384 0.8479609887828539 0.0
1.367251332770493 0.2041553944563636 0.0
1.870721433742522 0.7905989208842599 0.0
1.387906762913351 1.555741687747287 0.0
9.559918612869 0.8444052974080497 0.0
9.286795039366257 0.4698254290795815 0.0
[...]
POINT_DATA 600

VECTORS Velocity float
0.0000000000000000 0.0000000000000000 0.0
0.0000000000000000 0.0000000000000000 0.0
0.0000000000000000 0.0000000000000000 0.0
0.0000000000000000 0.0000000000000000 0.0
0.0000000000000000 0.0000000000000000 0.0
0.0000000000000000 0.0000000000000000 0.0
0.0000000000000000 0.0000000000000000 0.0
0.0000000000000000 0.0000000000000000 0.0
0.0000000000000000 0.0000000000000000 0.0
0.0000000000000000 0.0000000000000000 0.0
0.0000000000000000 0.0000000000000000 0.0
0.0000000000000000 0.0000000000000000 0.0
0.0000000000000000 0.0000000000000000 0.0
0.0000000000000000 0.0000000000000000 0.0
0.0000000000000000 0.0000000000000000 0.0
0.0000000000000000 0.0000000000000000 0.0
0.0000000000000000 0.0000000000000000 0.0
0.0000000000000000 0.0000000000000000 0.0
0.0000000000000000 0.0000000000000000 0.0
0.0000000000000000 0.0000000000000000 0.0
0.0000000000000000 0.0000000000000000 0.0
0.0000000000000000 0.0000000000000000 0.0
0.0000000000000000 0.0000000000000000 0.0
0.0000000000000000 0.0000000000000000 0.0
0.0000000000000000 0.0000000000000000 0.0
0.0000000000000000 0.0000000000000000 0.0
0.0000000000000000 0.0000000000000000 0.0
0.0000000000000000 0.0000000000000000 0.0
0.0000000000000000 0.0000000000000000 0.0
0.0000000000000000 0.0000000000000000 0.0
0.0000000000000000 0.0000000000000000 0.0
0.0000000000000000 0.0000000000000000 0.0
0.0000000000000000 0.0000000000000000 0.0
0.0000000000000000 0.0000000000000000 0.0
0.0000000000000000 0.0000000000000000 0.0
0.0000000000000000 0.0000000000000000 0.0
0.0000000000000000 0.0000000000000000 0.0
0.0000000000000000 0.0000000000000000 0.0
0.0000000000000000 0.0000000000000000 0.0
0.0000000000000000 0.0000000000000000 0.0
0.0000000000000000 0.0000000000000000 0.0
0.0000000000000000 0.0000000000000000 0.0
0.8244377315160928 -0.1314027405197498 0.0
0.0000000000000000 0.0000000000000000 0.0
0.0000000000000000 0.0000000000000000 0.0
0.0000000000000000 0.0000000000000000 0.0
0.0000000000000000 0.0000000000000000 0.0
0.0000000000000000 0.0000000000000000 0.0
0.0000000000000000 0.0000000000000000 0.0
0.0000000000000000 0.0000000000000000 0.0
0.0000000000000000 0.0000000000000000 0.0
0.0000000000000000 0.0000000000000000 0.0
0.0000000000000000 0.0000000000000000 0.0
0.0000000000000000 0.0000000000000000 0.0
0.0000000000000000 0.0000000000000000 0.0
0.0000000000000000 0.0000000000000000 0.0
0.0000000000000000 0.0000000000000000 0.0
0.0000000000000000 0.0000000000000000 0.0
0.0000000000000000 0.0000000000000000 0.0
0.0000000000000000 0.0000000000000000 0.0
0.0000000000000000 0.0000000000000000 0.0
0.0000000000000000 0.0000000000000000 0.0
0.0000000000000000 0.0000000000000000 0.0
0.0000000000000000 0.0000000000000000 0.0
0.0000000000000000 0.0000000000000000 0.0
0.0000000000000000 0.0000000000000000 0.0
0.0000000000000000 0.0000000000000000 0.0
0.0000000000000000 0.0000000000000000 0.0
0.0000000000000000 0.0000000000000000 0.0
0.0000000000000000 0.0000000000000000 0.0
0.0000000000000000 0.0000000000000000 0.0
0.0000000000000000 0.0000000000000000 0.0
0.0000000000000000 0.0000000000000000 0.0
0.0000000000000000 0.0000000000000000 0.0
0.0000000000000000 0.0000000000000000 0.0
0.0000000000000000 0.0000000000000000 0.0
0.0000000000000000 0.0000000000000000 0.0
0.0000000000000000 0.0000000000000000 0.0
0.0000000000000000 0.0000000000000000 0.0
0.0000000000000000 0.0000000000000000 0.0
0.0000000000000000 0.0000000000000000 0.0
0.0000000000000000 0.0000000000000000 0.0
0.0000000000000000 0.0000000000000000 0.0
0.0000000000000000 0.0000000000000000 0.0
0.0000000000000000 0.0000000000000000 0.0
0.0000000000000000 0.0000000000000000 0.0
0.0000000000000000 0.0000000000000000 0.0
0.0000000000000000 0.0000000000000000 0.0
0.0000000000000000 0.0000000000000000 0.0
1.0000000000000000 0.0000000000000000 0.0
1.0000000000000000 0.0000000000000000 0.0
1.0000000000000000 0.0000000000000000 0.0
1.0000000000000000 0.0000000000000000 0.0
1.0000000000000000 0.0000000000000000 0.0
1.0000000000000000 0.0000000000000000 0.0
1.0000000000000000 0.0000000000000000 0.0
1.0000000000000000 0.0000000000000000 0.0
1.0000000000000000 0.0000000000000000 0.0
0.0000000000000000 0.0000000000000000 0.0
0.0000000000000000 0.0000000000000000 0.0
0.0000000000000000 0.0000000000000000 0.0
0.0000000000000000 0.0000000000000000 0.0
0.0000000000000000 0.0000000000000000 0.0
0.0000000000000000 0.0000000000000000 0.0
0.0000000000000000 0.0000000000000000 0.0
0.0000000000000000 0.0000000000000000 0.0
0.0000000000000000 0.0000000000000000 0.0
0.0000000000000000 0.0000000000000000 0.0
0.0000000000000000 0.0000000000000000 0.0
0.0000000000000000 0.0000000000000000 0.0
0.0000000000000000 0.0000000000000000 0.0
0.0000000000000000 0.0000000000000000 0.0
0.0000000000000000 0.0000000000000000 0.0
0.0000000000000000 0.0000000000000000 0.0
0.0000000000000000 0.0000000000000000 0.0
0.0000000000000000 0.0000000000000000 0.0
0.0000000000000000 0.0000000000000000 0.0
0.0000000000000000 0.0000000000000000 0.0
0.0000000000000000 0.0000000000000000 0.0
0.0000000000000000 0.0000000000000000 0.0
0.0000000000000000 0.0000000000000000 0.0
0.0000000000000000 0.0000000000000000 0.0
0.0000000000000000 0.0000000000000000 0.0
0.0000000000000000 0.0000000000000000 0.0
0.0000000000000000 0.0000000000000000 0.0
0.0000000000000000 0.0000000000000000 0.0
0.0000000000000000 0.0000000000000000 0.0
0.0000000000000000 0.0000000000000000 0.0
0.0000000000000000 0.0000000000000000 0.0
0.0000000000000000 0.0000000000000000 0.0
0.0000000000000000 0.0000000000000000 0.0
0.0000000000000000 0.0000000000000000 0.0
0.0000000000000000 0.0000000000000000 0.0
0.0000000000000000 0.0000000000000000 0.0
0.0000000000000000 0.0000000000000000 0.0
0.0000000000000000 0.0000000000000000 0.0
0.0000000000000000 0.0000000000000000 0.0
0.0000000000000000 0.0000000000000000 0.0
0.0000000000000000 0.0000000000000000 0.0
0.0000000000000000 0.0000000000000000 0.0
0.0000000000000000 0.0000000000000000 0.0
0.0000000000000000 0.0000000000000000 0.0
0.0000000000000000 0.0000000000000000 0.0
0.0000000000000000 0.0000000000000000 0.0
0.0000000000000000 0.0000000000000000 0.0
0.0000000000000000 0.0000000000000000 0.0
0.0000000000000000 0.0000000000000000 0.0
1.0710984085719395 -0.4625426105087291 0.0
0.9664785029452410 -0.1955224830648051 0.0
0.9838373059000137 -0.0292348029984631 0.0
1.0703812325297637 0.3850403018135505 0.0
1.3442233268985619 0.0034420635160198 0.0
1.4267140143136305 -0.0847929543332496 0.0
1.4468014035352690 -0.1759818496863138 0.0
1.2335621908347167 -0.1056711972055557 0.0
1.3300258723756275 -0.0812642227253017 0.0
1.5230582360903482 -0.1141923874318990 0.0
1.5851737043897851 -0.0291528090796510 0.0
1.5306394106651791 0.0196476077851820 0.0
1.5830574587512365 0.0961953461878160 0.0
1.5094600894467685 -0.1200844721370043 0.0
1.1966662020749947 0.0017520675887143 0.0
1.3443091727483938 -0.0991196949703475 0.0
1.2327363457489924 0.2264275888418855 0.0
1.5834737722441368 0.0716610723128213 0.0
1.5621038236427220 0.0098573015264652 0.0
1.1651589913951803 -0.0496820151919298 0.0
1.2641139782079696 -0.0265175646042533 0.0
1.1589614217469428 -0.0546864194111788 0.0
1.5277091640524492 -0.0562516321313913 0.0
1.5806609450476550 0.0543705799844615 0.0
1.2003818164894480 0.0907704226513881 0.0
1.1433511633531532 -0.2395949972551279 0.0
1.4959979329721746 0.0147995315766029 0.0
1.4960479785355953 -0.0178828041860337 0.0
1.5255934172118299 0.0355426007906213 0.0
1.5475445582386036 0.0132656070125709 0.0
1.3232582483124937 -0.1179905921116057 0.0
1.4873518693844796 0.0096733500451889 0.0
1.6541888348024480 0.0254956385008359 0.0
1.3584200954259014 0.1308961764214762 0.0
1.4148594972240187 -0.0432645710604478 0.0
1.3807804155505354 -0.0478145153824204 0.0
1.3294770390815656 -0.1433760215064715 0.0
1.5085404148616606 0.0926818066543712 0.0
1.5120438510734924 0.0021967014758157 0.0
1.6250002953272675 -0.1062496024892882 0.0
1.6830104394515093 -0.0382090846100175 0.0
1.2061685440299077 -0.0939673103564789 0.0
1.5893775336380129 -0.0200467260988100 0.0
0.9942137094404877 0.0575602938484314 0.0
0.8780726716277236 0.0315705986007568 0.0
1.3804563788832069 -0.0493775368754605 0.0
0.8981299329709700 0.0260275316258748 0.0
0.8824594121786810 -0.0511514005048341 0.0
1.0071158285156225 0.0432558714138559 0.0
1.3111867305687435 -0.0491907053130115 0.0
1.8002032235640217 -0.1358730321152275 0.0
1.2793745050244187 0.0004801066892692 0.0
0.9914218832340168 -0.0680670065200781 0.0
1.4305608826240570 -0.1038649659035932 0.0
1.3653091156755055 0.0406605198871155 0.0
1.3265715772540272 0.0016239824172584 0.0
1.2195014347828024 -0.0207474392475877 0.0
1.0817470887278144 -0.0655644431566007 0.0
1.0773951758367415 0.0179438003922863 0.0
1.2499423358226933 0.0235086596536992 0.0
1.4500419793012065 -0.0620588192556092 0.0
1.2285256617214235 -0.0292890171232598 0.0
1.2045580203224886 -0.2073919951644545 0.0
1.1282154399872548 0.3371884584675497 0.0
1.0989055436576951 0.1973450808375642 0.0
1.4202358692680015 -0.0724304944558401 0.0
1.2949179490062264 0.0914969958142676 0.0
1.4004237805725903 0.0541299385223690 0.0
1.2315955017439335 0.0216827179299614 0.0
1.7382910960234839 0.0680375477783460 0.0
1.4832429656607213 -0.0097591887954999 0.0
1.3686041923434347 -0.0562561677139225 0.0
0.9276212162572010 0.0102674830863678 0.0
1.1008371786258861 -0.0148367439304159 0.0
1.6050275994173497 -0.1336819324487920 0.0
1.3106611369411765 0.0492780375024241 0.0
1.4476669004748244 0.0715032838582698 0.0
1.3714861695371090 -0.0504822127963452 0.0
1.2419776279807169 -0.0434843088902608 0.0
1.5382357103168749 -0.0424241859929185 0.0
1.6089690531840994 0.0405551981699442 0.0
1.3626782237258630 0.0172373479229916 0.0
1.4006957535614923 -0.0868263286003274 0.0
1.0804284681619913 -0.0910628757222135 0.0
0.9817403866803081 -0.0010017700530407 0.0
1.5015280923800631 -0.1737707986555708 0.0
1.2376067337327969 -0.0978088822638432 0.0
1.5844371727843678 0.0134958979982503 0.0
0.6075382854170583 0.0284101220464125 0.0
0.8759856555756387 0.0979952852933710 0.0
1.6626164606044045 0.0134130734576722 0.0
1.2472867211306533 -0.0068637403209254 0.0
0.8839478534568034 0.0249030238529986 0.0
1.3114793672937670 -0.0947132650290502 0.0
1.1926748674419259 0.0055478656917521 0.0
1.1108913417741202 -0.2778412610819089 0.0
0.8292483514620320 0.0371635899606945 0.0
1.5940079030275003 0.0113228036175470 0.0
1.6641872510611493 -0.0093684360439390 0.0
0.8524482877754569 0.0980411943141834 0.0
1.6073829636862194 0.0560785154282890 0.0
1.0911494047361263 -0.2084694940772687 0.0
1.2218544515930756 0.0326941320076489 0.0
1.1008413939611017 -0.0413768225557844 0.0
1.2308947099185665 0.0148841248137984 0.0
1.6697737391088625 -0.0218448862188183 0.0
1.4355175554676636 -0.2116615249278172 0.0
1.4474198804218401 0.0452803026820226 0.0
1.4484843848916440 0.0886095350203784 0.0
1.3481474350431577 -0.0514788996766253 0.0
0.7456232750107880 -0.0907090541540886 0.0
1.4259023716475623 -0.1513328073752907 0.0
0.6572942816666426 -0.0053081072670136 0.0
1.2438783149200536 -0.0634474214659869 0.0
1.0511387390478557 0.0202850616100734 0.0
1.2527211910071578 -0.0260762768625686 0.0
1.1678964034059349 0.2319738577172813 0.0
1.2773423709073073 0.0932928262291271 0.0
0.7301730545859323 0.0026196572371801 0.0
1.2221139137630341 -0.0765174971306448 0.0
0.7070147726134052 0.0040712136967253 0.0
1.6556338461176641 0.0019246086466753 0.0
1.0151698205349484 0.0772629688772507 0.0
1.3383626767446173 -0.1239579171513375 0.0
1.1380359009647603 0.0013681440868112 0.0
1.4835407027984191 -0.1417836093790751 0.0
0.5700839318967098 -0.0440559802712327 0.0
1.1803603638451674 -0.0784317176635132 0.0
1.1931819543269793 -0.1131770217069015 0.0
1.2854844188887753 -0.1021724573904356 0.0
1.6365100912499295 -0.0139379568022453 0.0
1.6042693897613005 0.0501425851290056 0.0
0.9080554064545358 0.0721658963627290 0.0
1.2413520212868996 -0.0444026637765229 0.0
0.7502649866896764 0.1068227189198622 0.0
0.5938416117416992 -0.0028549126794707 0.0
0.4494082948464648 0.0234666896239596 0.0
1.4197188635505591 -0.0953597945343186 0.0
0.5811937049074922 0.1697670111088888 0.0
0.7012777231152429 -0.0058996189651862 0.0
1.5578414748516347 0.0243875558938956 0.0
1.2922490031598497 -0.0546806431749306 0.0
1.2090796301781290 -0.0400244846424234 0.0
1.5670644230680515 0.0677456114591963 0.0
1.4017524596222912 -0.0679660014029036 0.0
1.5714395048634533 0.0291254760469910 0.0
1.1822314235182818 0.0552342500092257 0.0
1.1157404922501548 -0.2500529414506467 0.0
1.2146085540123319 0.1710974119440912 0.0
1.1084067966813531 0.2345899898811983 0.0
1.0737877344695033 -0.0462428740827342 0.0
1.1845429097780829 0.0252085894497901 0.0
0.9319246563528856 0.0423484134123312 0.0
0.5976921400746037 0.1520948074147770 0.0
0.9917467446822945 -0.0116742257313997 0.0
1.3875173650686363 -0.0387601625948306 0.0
0.7660992325392669 0.0675684026211344 0.0
1.2049636264476840 0.0541722484809461 0.0
1.4328960370887254 -0.0647460913712005 0.0
0.8938817596743514 -0.0192324698781918 0.0
1.2624238057951112 0.0312392130308398 0.0
1.5245853119941666 0.0504461934710961 0.0
1.1935310136037007 -0.1799789166127269 0.0
1.3093339836201132 -0.1056564425131405 0.0
0.5386450081548372 0.1478478000660850 0.0
0.5376787033276552 0.1185665754789288 0.0
0.8399578125117567 -0.0135374333373856 0.0
1.4695714668387698 -0.0820925133817279 0.0
1.4280999301167829 -0.0802888672055505 0.0
0.5682105344726165 0.1700444526355824 0.0
0.6975471679269625 -0.0573520088122436 0.0
1.1213208977039528 0.0211185153482428 0.0
1.4579362352312535 -0.1094067448329544 0.0
0.9845480218100215 -0.0135200247508683 0.0
1.2966353430513808 0.0105244035350030 0.0
1.3774548785972294 -0.0851941559618156 0.0
0.9651182278240693 0.0082426723284120 0.0
0.8744419181765825 0.0707274873699128 0.0
1.3264916743432547 -0.0010501232380146 0.0
0.7696819350128290 -0.0262174748388646 0.0
1.5634105962933327 -0.0255816599717007 0.0
0.7664681775568153 0.0219166923182242 0.0
0.7731550199091350 -0.0296365301441533 0.0
1.2915554864926533 -0.0776488263807141 0.0
1.3774105250256521 -0.0121550950664365 0.0
0.9906578287482434 0.0111060003694403 0.0
0.6116464415811118 0.1907005594901129 0.0
0.9121933211438852 -0.0047638522100116 0.0
1.1631051667969348 -0.0499997280407527 0.0
0.8162604509276601 0.0955854945558538 0.0
1.1764762176170782 0.1395695521078948 0.0
1.0970810992528421 -0.0194866777320376 0.0
0.6808537968070658 0.0183761440360774 0.0
1.5219489307048755 -0.0208939388250840 0.0
0.9049367328899647 -0.0120876500380200 0.0
1.5459661625904582 -0.0254364065161693 0.0
0.4395006600827482 -0.0343770146258304 0.0
1.4472054974688964 -0.1680014039807182 0.0
1.5971770080677583 -0.0123876367560574 0.0
0.5643781982063747 0.1167939787614560 0.0
0.7795051201474368 -0.0246770930005138 0.0
1.5834282810362768 0.0683545708032898 0.0
0.9355260816087239 0.0927588747049390 0.0
1.5614891121240453 0.0569334441232009 0.0
1.0045775635438141 -0.0151548727922013 0.0
0.8007449754934705 -0.0594399994620943 0.0
0.6783759067602140 -0.0336455208577566 0.0
1.0201157582882350 -0.0257054254891942 0.0
1.0033248613573122 0.0297473049191406 0.0
1.4553063144474399 0.0137574658587064 0.0
0.5594798776292472 0.0372667527597621 0.0
0.8817432540372085 -0.0615100262305336 0.0
0.8519880046591983 0.0507388196414454 0.0
1.4236633118576874 0.0795770389737095 0.0
0.8018168377912497 -0.1993668370560157 0.0
0.8297883990657802 -0.0260698953271479 0.0
0.5237695045595143 -0.0486332405324555 0.0
1.0578146106790236 0.0222009312588107 0.0
0.7162686751863192 0.1955757659080455 0.0
0.9029378970401825 0.0436881833029430 0.0
1.2662986619236973 -0.1204463301132857 0.0
0.7635540263204047 -0.0185957045802405 0.0
0.9012970836341855 -0.0017015860309430 0.0
1.0083110826968522 -0.0123264320944452 0.0
0.7922219012272416 -0.0309073280786597 0.0
0.7689906025359606 -0.0446354628693904 0.0
1.4911107027846966 0.0255545626952089 0.0
0.8007712758694954 -0.0317475376138482 0.0
1.0387209694254944 -0.0788937872299623 0.0
0.8395158790314647 0.0547704087425711 0.0
1.2973676544701307 -0.0376369340486334 0.0
0.6343913460193633 -0.0186487112711951 0.0
0.4041122627870085 0.0060521359045867 0.0
1.1835476442315418 -0.0929447578780470 0.0
0.8365572354939550 0.1026283217160032 0.0
0.7951011999940041 -0.0164054022691299 0.0
0.9601260351115634 0.0562128927178637 0.0
1.3333827046181197 -0.0297989617678797 0.0
0.6548346723894758 -0.0210174337619112 0.0
1.2154117183285105 0.1882361016725048 0.0
1.5013513971212691 0.0060091740858117 0.0
0.7108395689339995 -0.0126938588077202 0.0
1.1431706622555999 0.0043659579806533 0.0
1.2703397969293040 -0.0630770565674021 0.0
1.0968541644194760 -0.0504173986900168 0.0
1.4226960869719794 -0.1225724569247064 0.0
0.4751420453546618 0.2105819923586064 0.0
1.7298636926358795 0.0212810161613119 0.0
1.3432007306107350 0.0316334150384964 0.0
0.5588417796036206 0.0508691536311474 0.0
1.4516013739011420 -0.1463237528574909 0.0
1.5106674164921103 -0.0896292698669462 0.0
0.6370316816732894 -0.0074041661916191 0.0
1.0247875096887131 -0.0137424876083001 0.0
0.6729822232824235 -0.0388539236240272 0.0
0.9513391608263642 -0.0773714159351938 0.0
0.7842594758035283 -0.0531278511340630 0.0
0.4063460144886016 0.2133458811367077 0.0
1.1264686395955588 0.2412681601129451 0.0
1.5951390060732700 0.0097319996514037 0.0
0.5828464200917571 0.2192354023083974 0.0
1.5772417235901164 -0.0625232845984838 0.0
1.7459828007396270 0.0983979187354242 0.0
0.5465766995771892 0.2118084596061376 0.0
1.4833531539481806 0.0458960979080998 0.0
1.4134417018632557 -0.1383006817519216 0.0
0.9249488711313242 0.2499053599108402 0.0
1.2895434328994619 -0.0203588669699151 0.0
1.3188909155612372 0.0211956014350708 0.0
0.7802616050883784 0.0898598437767344 0.0
1.3390071907561376 -0.1149722446248763 0.0
0.6966288221868050 -0.0565949197844524 0.0
0.5889632908259966 0.1961628005868505 0.0
0.4111429553034619 0.0213820882566986 0.0
1.2085441825455430 -0.0226691429391207 0.0
0.8843765595160742 -0.2757144763816329 0.0
1.4190890065313813 0.1014477786490688 0.0
1.2964693335370616 -0.1096868114638877 0.0
0.5603991810846431 -0.0118296125716013 0.0
0.5814886034236004 0.0486796262432153 0.0
0.6994224113928411 0.0180229109182806 0.0
1.1536352102624388 0.0040881470860636 0.0
1.2032011978998440 0.2965780118223095 0.0
0.5641581871677707 -0.0331867954623730 0.0
1.1336726143727154 -0.0594501547669691 0.0
0.5928557256092817 0.0405893424400891 0.0
1.5696683529959665 0.0403488016668356 0.0
0.4590979083749945 0.2492640297113360 0.0
0.7420723572528657 -0.1219685044601378 0.0
1.5412390603886481 -0.0448211899316962 0.0
1.2537718113867817 0.0380821842062608 0.0
1.5245049052155069 -0.1384430574906065 0.0
0.6836251484917620 0.0059743529444552 0.0
0.8718040596065393 -0.0341798167442743 0.0
1.4579005432863570 -0.1040702334141946 0.0
1.3985461527099015 -0.0817250158616653 0.0
1.0247073507134306 0.0642540053327862 0.0
1.4495079471679793 0.0374570984216394 0.0
1.3333537056642846 -0.0705732285259328 0.0
1.2718501756833420 0.1492950609431978 0.0
0.8499588440272476 -0.0076600132619495 0.0
0.7441423181441175 -0.0212814361091676 0.0
0.6762970107193613 -0.0462694095472239 0.0
1.3186749470616210 -0.0691954121325866 0.0
1.3234761747286723 -0.0679005979586307 0.0
1.1392379985247314 0.1179001551214465 0.0
0.3408317769272322 0.0307683834203926 0.0
1.4381245316186608 -0.0928381215569345 0.0
0.3051925027192313 0.1116476557192919 0.0
0.6911662589785735 0.1212522501775331 0.0
1.0681265987729123 0.0380322829883505 0.0
0.5383962491072602 -0.1145429505906700 0.0
1.1464140306807438 -0.3162871854274769 0.0
1.3851631430574887 -0.0731586662227565 0.0
1.6094444934440633 -0.0187126699550740 0.0
0.7314218123215722 0.1117427468112585 0.0
1.5213090739081705 -0.0619560182563803 0.0
0.9312663662456429 -0.0331265840055596 0.0
1.3944636739665821 -0.0618491678676664 0.0
0.9331928980866000 -0.0255731515927957 0.0
0.4933609943691807 0.2089871470175729 0.0
0.9084601111618336 -0.0552747093114002 0.0
1.0264917523286812 -0.0642707096127870 0.0
1.5680771912311560 -0.0461056353752103 0.0