# vtk DataFile Version 3.0
LucasCarvalhoTCC Results
ASCII

DATASET POLYDATA
FIELD FieldData 1
TIME 1 1 double
1.7000000000000002

POINTS 600 float
0.0 2.0 0.0
0.25 1.989125 0.0
0.5 1.958 0.0
0.75 1.908875 0.0
1.0 1.844 0.0
1.25 1.765625 0.0
1.5 1.676 0.0
1.75 1.577375 0.0
2.0 1.472 0.0
2.25 1.362125 0.0
2.5 1.25 0.0
2.75 1.137875 0.0
3.0 1.028 0.0
3.25 0.922625 0.0
3.5 0.8240000000000001 0.0
3.75 0.734375 0.0
4.0 0.6560000000000001 0.0
4.25 0.5911249999999999 0.0
4.5 0.542 0.0
4.75 0.510875 0.0
5.0 0.5 0.0
5.25 0.5036250000000004 0.0
5.5 0.5140000000000002 0.0
5.75 0.5303750000000003 0.0
6.0 0.5519999999999996 0.0
6.25 0.578125 0.0
6.5 0.6080000000000005 0.0
6.75 0.6408749999999999 0.0
7.0 0.6760000000000002 0.0
7.25 0.7126249999999992 0.0
7.5 0.75 0.0
7.75 0.7873750000000004 0.0
8.0 0.8239999999999994 0.0
8.25 0.8591250000000001 0.0
8.5 0.8919999999999999 0.0
8.75 0.921875 0.0
9.0 0.9479999999999991 0.0
9.25 0.9696250000000011 0.0
9.5 0.9859999999999984 0.0
9.75 0.9963750000000013 0.0
10.0 1.0 0.0
0.0 0.0 0.0
10.0 0.0 0.0
0.124999999999674 1.994562500000014 0.0
0.3749999999999947 1.973562500000001 0.0
0.6249999999999918 1.933437500000002 0.0
0.874999999999979 1.876437500000006 0.0
1.124999999999963 1.804812500000012 0.0
1.374999999999944 1.72081250000002 0.0
1.624999999999985 1.626687500000006 0.0
1.874999999999953 1.52468750000002 0.0
2.124999999999936 1.417062500000028 0.0
2.374999999999952 1.306062500000022 0.0
2.624999999999919 1.193937500000036 0.0
2.87499999999992 1.082937500000035 0.0
3.124999999999946 0.9753125000000229 0.0
3.374999999999948 0.8733125000000204 0.0
3.624999999999972 0.77918750000001 0.0
3.874999999999963 0.6951875000000118 0.0
4.124999999999968 0.6235625000000082 0.0
4.394409538298571 0.5627485257243309 0.0
4.583333333333322 0.5316250000000015 0.0
4.666666666666668 0.5212499999999999 0.0
4.833333333333334 0.50725 0.0
4.916666666666667 0.503625 0.0
5.083333333333334 0.5012083333333335 0.0
5.166666666666666 0.502416666666667 0.0
5.333333333333334 0.5070833333333337 0.0
5.416666666666667 0.510541666666667 0.0
5.583333333333334 0.5194583333333336 0.0
5.666666666666666 0.5249166666666669 0.0
5.833333333333338 0.5375833333333339 0.0
5.916666666666661 0.544791666666666 0.0
6.105781577147724 0.5630541748119369 0.0
6.375 0.5930625000000003 0.0
6.624999999999988 0.6244374999999988 0.0
6.874999999999994 0.6584374999999991 0.0
7.125 0.6943124999999997 0.0
7.375 0.7313124999999996 0.0
7.624999999999994 0.7686874999999992 0.0
7.875 0.8056874999999999 0.0
8.125 0.8415624999999998 0.0
8.374999999999991 0.8755624999999989 0.0
8.624999999999995 0.9069374999999993 0.0
8.874999999999995 0.9349374999999991 0.0
9.125 0.9588125000000001 0.0
9.375 0.9778124999999998 0.0
9.625 0.9911874999999999 0.0
9.875 0.9981875000000007 0.0
0.0 1.799999999999167 0.0
0.0 1.6 0.0
0.0 1.400000000001387 0.0
0.0 1.200000000002774 0.0
0.0 1.000000000004117 0.0
0.0 0.8000000000033287 0.0
0.0 0.6000000000024965 0.0
0.0 0.4000000000016644 0.0
0.0 0.200000000000832 0.0
0.199999999999856 0.0 0.0
0.3999999999996677 0.0 0.0
0.5999999999994683 0.0 0.0
0.7999999999993286 0.0 0.0
0.9999999999991888 0.0 0.0
1.199999999999033 0.0 0.0
1.399999999998576 0.0 0.0
1.599999999997992 0.0 0.0
1.799999999997408 0.0 0.0
1.999999999996825 0.0 0.0
2.199999999996241 0.0 0.0
2.399999999995657 0.0 0.0
2.599999999995073 0.0 0.0
2.79999999999449 0.0 0.0
2.999999999993906 0.0 0.0
3.199999999993322 0.0 0.0
3.399999999992738 0.0 0.0
3.599999999992154 0.0 0.0
3.799999999991571 0.0 0.0
3.999999999991022 0.0 0.0
4.199999999991187 0.0 0.0
4.399999999991491 0.0 0.0
4.599999999991795 0.0 0.0
4.799999999992099 0.0 0.0
4.999999999992403 0.0 0.0
5.199999999992706 0.0 0.0
5.39999999999301 0.0 0.0
5.599999999993313 0.0 0.0
5.799999999993618 0.0 0.0
5.999999999993922 0.0 0.0
6.199999999994227 0.0 0.0
6.39999999999453 0.0 0.0
6.599999999994833 0.0 0.0
6.799999999995138 0.0 0.0
6.999999999995442 0.0 0.0
7.199999999995747 0.0 0.0
7.39999999999605 0.0 0.0
7.599999999996353 0.0 0.0
7.799999999996658 0.0 0.0
7.999999999996962 0.0 0.0
8.199999999997265 0.0 0.0
8.399999999997569 0.0 0.0
8.599999999997873 0.0 0.0
8.799999999998176 0.0 0.0
8.99999999999848 0.0 0.0
9.199999999998786 0.0 0.0
9.399999999999089 0.0 0.0
9.599999999999392 0.0 0.0
9.799999999999697 0.0 0.0
10.0 0.1999999999995579 0.0
10.0 0.3999999999989749 0.0
10.0 0.5999999999989468 0.0
10.0 0.7999999999994734 0.0
0.913963423524136 0.9126937851647636 0.0
1.629657910441747 0.8286436141773268 0.0
2.300136613917738 0.6369890708869279 0.0
0.5989085226155619 1.38125543468559 0.0
1.274155622640533 1.242773398230304 0.0
2.860215383945273 0.5217401976756945 0.0
9.469653920408135 0.4910067017840992 0.0
8.984679546317787 0.4696119782494839 0.0
8.499397693277212 0.4463630640980716 0.0
3.270918412356206 0.4522692359356972 0.0
1.223039611612243 0.5146439900227544 0.0
2.024812732135938 1.00818256045515 0.0
0.5365376864627701 0.5434316309416508 0.0
8.114834335444021 0.4602948767329583 0.0
7.742261962994204 0.4117304941858466 0.0
0.9443382341364558 1.456061359265878 0.0
1.665275621558886 1.201744468407863 0.0
1.89566112584099 0.4397284596316843 0.0
3.691409759982064 0.3560936332572802 0.0
7.368457390036411 0.3792926046732459 0.0
0.5071184951703254 0.9340893429149442 0.0
0.3822273842356539 1.647625881691675 0.0
5.916285335387544 0.2564903116750689 0.0
5.628860531758535 0.2582323053999509 0.0
5.380471017960128 0.2502349014663197 0.0
5.139244585769944 0.2549145445969738 0.0
2.686085237972266 0.8031095648160084 0.0
4.507599040026292 0.263176944655695 0.0
6.983755234374982 0.3380000000001097 0.0
9.720925955181613 0.6635813325201156 0.0
1.288006195687152 0.8759679848503046 0.0
9.20556379558699 0.6923669083350594 0.0
2.319913492084225 0.9512500928262699 0.0
8.73203612228155 0.6151508464420534 0.0
4.868679481352366 0.2526598053940744 0.0
4.10358044398202 0.3012437332986487 0.0
6.602422946953217 0.3126221952225479 0.0
2.534693527909069 0.3583319619586092 0.0
6.193332317503376 0.2894654215336858 0.0
0.8804088217382579 0.3735513844182569 0.0
0.7663303172393539 1.679065267574722 0.0
3.081211528283084 0.6968015573146217 0.0
1.241762689885858 1.521465072418641 0.0
1.573472750763779 0.3374689934575129 0.0
1.475107933015155 1.403918544935278 0.0
0.8212739503602162 1.195790902469637 0.0
4.681049549092561 0.3558177014380842 0.0
9.439519900118443 0.7366884444350511 0.0
2.201393787062887 0.3261463175998884 0.0
2.015369189818184 0.7109460688851087 0.0
8.32727069655695 0.6360373328685593 0.0
8.961488632119996 0.7119124617705204 0.0
9.22773266034565 0.3109430611770705 0.0
0.3000513553073295 1.178778127105867 0.0
1.91985473842554 1.233084801189704 0.0
8.749827252515535 0.3049638092131281 0.0
3.50551132590258 0.5576614504134195 0.0
3.040500962406976 0.290446660105673 0.0
9.72097519930939 0.3037986529514364 0.0
0.3073166349239687 0.3249300260882615 0.0
0.2948185331392187 0.7229775107826154 0.0
1.46029425821417 1.06552904833304 0.0
0.8085718129253527 0.673531272847494 0.0
7.913326191751847 0.5738936378911789 0.0
8.295349499871781 0.2556682497524391 0.0
4.31359646688283 0.3665214152100782 0.0
7.542842082022704 0.5249918217576657 0.0
1.058357552227335 1.116692590939024 0.0
2.214297272750292 1.159898327391242 0.0
2.901187336648686 0.8282146771898153 0.0
3.933498145061447 0.4325241689837319 0.0
7.956006969037984 0.2667411694088205 0.0
7.172393179434975 0.4835114022190097 0.0
1.440243631802057 0.6689433452646625 0.0
3.458541882144431 0.2581755850286561 0.0
5.791617360065465 0.3978542524532168 0.0
5.981529865241493 0.3900667299390458 0.0
1.083462543944253 0.7203994120564634 0.0
1.78518471978951 1.008552691762234 0.0
2.77360122246243 0.2689852172070111 0.0
2.565134389978369 0.9928826788184764 0.0
2.543046005790158 0.6034091352176242 0.0
3.293038780485421 0.6769811703257343 0.0
6.790787388653942 0.4353933509634578 0.0
1.140204059461831 0.2538227257007896 0.0
0.6242104065654487 0.2738473600765566 0.0
6.393430278703709 0.3766405270445946 0.0
8.533059390324546 0.6950580701614406 0.0
0.9961263693263854 1.612128843772703 0.0
1.697598586607002 0.5781950992180334 0.0
8.087930458724863 0.6517815437732153 0.0
0.2748906317360928 1.770749713716887 0.0
0.5785110002099415 1.757022387413085 0.0
5.550004842562332 0.3852675728674634 0.0
4.948161884155141 0.3480305424737933 0.0
1.741244734175577 1.381979611033466 0.0
5.312408927381063 0.3621256994047111 0.0
0.2492139438157334 1.453132031680879 0.0
7.597720022451821 0.2370268512906596 0.0
9.471021754366422 0.2472916581956264 0.0
7.714083843672875 0.600212897672991 0.0
4.520815862079482 0.3946753115680038 0.0
2.47356661122767 0.8007389356831706 0.0
7.325494311403363 0.528948935030723 0.0
7.147005275585743 0.2709670165999667 0.0
3.758046446289313 0.5474783841545341 0.0
3.893717059615281 0.1664960777568404 0.0
2.152835534199412 0.8614028741175742 0.0
8.995993312441625 0.1933410497113667 0.0
1.077676137392001 1.368204555688504 0.0
0.2429906229817933 0.9816066505657851 0.0
0.6261765586985547 1.180540007244081 0.0
9.81151801018651 0.816223424030724 0.0
0.6725442903064565 0.8425384371773644 0.0
1.74584086891446 0.2617492458514414 0.0
0.7667820686164357 1.440842670056678 0.0
8.539133693395232 0.1910926418035274 0.0
5.129145653242096 0.3632579123815574 0.0
6.816538849831732 0.2013284992826486 0.0
2.108503954619862 0.5359795950847274 0.0
6.933669557130528 0.4980836483776163 0.0
3.071406705674529 0.4919421055852253 0.0
2.001240035874449 0.2292738462614773 0.0
4.782473531509697 0.4061213127162872 0.0
0.5734126310178208 1.536352720889636 0.0
9.796714529589472 0.4898048068674991 0.0
5.678359041645315 0.373719883316694 0.0
5.427661572827738 0.3646059266294788 0.0
2.075214597532947 1.226969224366912 0.0
3.251521478555126 0.2637671977660283 0.0
2.722180837291864 0.9710783334409533 0.0
9.333262390342384 0.8479609887828539 0.0
1.367251332770493 0.2041553944563636 0.0
1.870721433742522 0.7905989208842599 0.0
1.387906762913351 1.555741687747287 0.0
9.559918612869 0.8444052974080497 0.0
9.286795039366257 0.4698254290795815 0.0
[...]
POINT_DATA 600

VECTORS Velocity float
0.0000000000000000 0.0000000000000000 0.0
0.0000000000000000 0.0000000000000000 0.0
0.0000000000000000 0.0000000000000000 0.0
0.0000000000000000 0.0000000000000000 0.0
0.0000000000000000 0.0000000000000000 0.0
0.0000000000000000 0.0000000000000000 0.0
0.0000000000000000 0.0000000000000000 0.0
0.0000000000000000 0.0000000000000000 0.0
0.0000000000000000 0.0000000000000000 0.0
0.0000000000000000 0.0000000000000000 0.0
0.0000000000000000 0.0000000000000000 0.0
0.0000000000000000 0.0000000000000000 0.0
0.0000000000000000 0.0000000000000000 0.0
0.0000000000000000 0.0000000000000000 0.0
0.0000000000000000 0.0000000000000000 0.0
0.0000000000000000 0.0000000000000000 0.0
0.0000000000000000 0.0000000000000000 0.0
0.0000000000000000 0.0000000000000000 0.0
0.0000000000000000 0.0000000000000000 0.0
0.0000000000000000 0.0000000000000000 0.0
0.0000000000000000 0.0000000000000000 0.0
0.0000000000000000 0.0000000000000000 0.0
0.0000000000000000 0.0000000000000000 0.0
0.0000000000000000 0.0000000000000000 0.0
0.0000000000000000 0.0000000000000000 0.0
0.0000000000000000 0.0000000000000000 0.0
0.0000000000000000 0.0000000000000000 0.0
0.0000000000000000 0.0000000000000000 0.0
0.0000000000000000 0.0000000000000000 0.0
0.0000000000000000 0.0000000000000000 0.0
0.0000000000000000 0.0000000000000000 0.0
0.0000000000000000 0.0000000000000000 0.0
0.0000000000000000 0.0000000000000000 0.0
0.0000000000000000 0.0000000000000000 0.0
0.0000000000000000 0.0000000000000000 0.0
0.0000000000000000 0.0000000000000000 0.0
0.0000000000000000 0.0000000000000000 0.0
0.0000000000000000 0.0000000000000000 0.0
0.0000000000000000 0.0000000000000000 0.0
0.0000000000000000 0.0000000000000000 0.0
0.0000000000000000 0.0000000000000000 0.0
0.0000000000000000 0.0000000000000000 0.0
0.8250147548938860 -0.1308619447506794 0.0
0.0000000000000000 0.0000000000000000 0.0
0.0000000000000000 0.0000000000000000 0.0
0.0000000000000000 0.0000000000000000 0.0
0.0000000000000000 0.0000000000000000 0.0
0.0000000000000000 0.0000000000000000 0.0
0.0000000000000000 0.0000000000000000 0.0
0.0000000000000000 0.0000000000000000 0.0
0.0000000000000000 0.0000000000000000 0.0
0.0000000000000000 0.0000000000000000 0.0
0.0000000000000000 0.0000000000000000 0.0
0.0000000000000000 0.0000000000000000 0.0
0.0000000000000000 0.0000000000000000 0.0
0.0000000000000000 0.0000000000000000 0.0
0.0000000000000000 0.0000000000000000 0.0
0.0000000000000000 0.0000000000000000 0.0
0.0000000000000000 0.0000000000000000 0.0
0.0000000000000000 0.0000000000000000 0.0
0.0000000000000000 0.0000000000000000 0.0
0.0000000000000000 0.0000000000000000 0.0
0.0000000000000000 0.0000000000000000 0.0
0.0000000000000000 0.0000000000000000 0.0
0.0000000000000000 0.0000000000000000 0.0
0.0000000000000000 0.0000000000000000 0.0
0.0000000000000000 0.0000000000000000 0.0
0.0000000000000000 0.0000000000000000 0.0
0.0000000000000000 0.0000000000000000 0.0
0.0000000000000000 0.0000000000000000 0.0
0.0000000000000000 0.0000000000000000 0.0
0.0000000000000000 0.0000000000000000 0.0
0.0000000000000000 0.0000000000000000 0.0
0.0000000000000000 0.0000000000000000 0.0
0.0000000000000000 0.0000000000000000 0.0
0.0000000000000000 0.0000000000000000 0.0
0.0000000000000000 0.0000000000000000 0.0
0.0000000000000000 0.0000000000000000 0.0
0.0000000000000000 0.0000000000000000 0.0
0.0000000000000000 0.0000000000000000 0.0
0.0000000000000000 0.0000000000000000 0.0
0.0000000000000000 0.0000000000000000 0.0
0.0000000000000000 0.0000000000000000 0.0
0.0000000000000000 0.0000000000000000 0.0
0.0000000000000000 0.0000000000000000 0.0
0.0000000000000000 0.0000000000000000 0.0
0.0000000000000000 0.0000000000000000 0.0
0.0000000000000000 0.0000000000000000 0.0
0.0000000000000000 0.0000000000000000 0.0
1.0000000000000000 0.0000000000000000 0.0
1.0000000000000000 0.0000000000000000 0.0
1.0000000000000000 0.0000000000000000 0.0
1.0000000000000000 0.0000000000000000 0.0
1.0000000000000000 0.0000000000000000 0.0
1.0000000000000000 0.0000000000000000 0.0
1.0000000000000000 0.0000000000000000 0.0
1.0000000000000000 0.0000000000000000 0.0
1.0000000000000000 0.0000000000000000 0.0
0.0000000000000000 0.0000000000000000 0.0
0.0000000000000000 0.0000000000000000 0.0
0.0000000000000000 0.0000000000000000 0.0
0.0000000000000000 0.0000000000000000 0.0
0.0000000000000000 0.0000000000000000 0.0
0.0000000000000000 0.0000000000000000 0.0
0.0000000000000000 0.0000000000000000 0.0
0.0000000000000000 0.0000000000000000 0.0
0.0000000000000000 0.0000000000000000 0.0
0.0000000000000000 0.0000000000000000 0.0
0.0000000000000000 0.0000000000000000 0.0
0.0000000000000000 0.0000000000000000 0.0
0.0000000000000000 0.0000000000000000 0.0
0.0000000000000000 0.0000000000000000 0.0
0.0000000000000000 0.0000000000000000 0.0
0.0000000000000000 0.0000000000000000 0.0
0.0000000000000000 0.0000000000000000 0.0
0.0000000000000000 0.0000000000000000 0.0
0.0000000000000000 0.0000000000000000 0.0
0.0000000000000000 0.0000000000000000 0.0
0.0000000000000000 0.0000000000000000 0.0
0.0000000000000000 0.0000000000000000 0.0
0.0000000000000000 0.0000000000000000 0.0
0.0000000000000000 0.0000000000000000 0.0
0.0000000000000000 0.0000000000000000 0.0
0.0000000000000000 0.0000000000000000 0.0
0.0000000000000000 0.0000000000000000 0.0
0.0000000000000000 0.0000000000000000 0.0
0.0000000000000000 0.0000000000000000 0.0
0.0000000000000000 0.0000000000000000 0.0
0.0000000000000000 0.0000000000000000 0.0
0.0000000000000000 0.0000000000000000 0.0
0.0000000000000000 0.0000000000000000 0.0
0.0000000000000000 0.0000000000000000 0.0
0.0000000000000000 0.0000000000000000 0.0
0.0000000000000000 0.0000000000000000 0.0
0.0000000000000000 0.0000000000000000 0.0
0.0000000000000000 0.0000000000000000 0.0
0.0000000000000000 0.0000000000000000 0.0
0.0000000000000000 0.0000000000000000 0.0
0.0000000000000000 0.0000000000000000 0.0
0.0000000000000000 0.0000000000000000 0.0
0.0000000000000000 0.0000000000000000 0.0
0.0000000000000000 0.0000000000000000 0.0
0.0000000000000000 0.0000000000000000 0.0
0.0000000000000000 0.0000000000000000 0.0
0.0000000000000000 0.0000000000000000 0.0
0.0000000000000000 0.0000000000000000 0.0
0.0000000000000000 0.0000000000000000 0.0
1.0710596523056501 -0.4588871525995223 0.0
0.9678647257196256 -0.1904195844610135 0.0
0.9833149314990477 -0.0274420199902455 0.0
1.0707250316604064 0.3813256178538743 0.0
1.2888265953409106 0.0029388498343583 0.0
1.3598960116948609 -0.0708661505509284 0.0
1.4064756476885392 -0.1559373290289301 0.0
1.2239771827300057 -0.0858926964865006 0.0
1.3198156395462788 -0.0836964799959782 0.0
1.4999004867277088 -0.1078555589682049 0.0
1.5677787143801185 -0.0266200122764624 0.0
1.5194131903092065 0.0179806056327164 0.0
1.5776583912878259 0.0921073660711412 0.0
1.5037151453648350 -0.1195980765934873 0.0
1.2144691172414466 -0.0008508954026336 0.0
1.3210225349208042 -0.0991444716459944 0.0
1.2276852805968701 0.1980022938649921 0.0
1.5777749654506406 0.0697528090261251 0.0
1.5569468310480605 0.0130303840295052 0.0
1.1901734807362123 -0.0566196941610774 0.0
1.2768880161974574 -0.0388124925514283 0.0
1.1792379760121290 -0.0385653947461594 0.0
1.5282793351148203 -0.0550597324025568 0.0
1.5804508372945913 0.0522064195850958 0.0
1.1711916561277254 0.0825604318553275 0.0
1.1651801059593954 -0.2180480001209539 0.0
1.4972227630955581 0.0159751835762087 0.0
1.4977056486452229 -0.0183086453332170 0.0
1.5270195902098143 0.0352607263843611 0.0
1.5490171028739115 0.0134313329927055 0.0
1.3246535478138630 -0.1245909857702221 0.0
1.4880749599965160 0.0083733811996389 0.0
1.6542477527867916 0.0250211570300557 0.0
1.3508514351104950 0.1283837571684291 0.0
1.3454963274773479 -0.0382924214286667 0.0
1.3766812837534506 -0.0464488200286807 0.0
1.3173280208129974 -0.1461533107471082 0.0
1.5002975556894229 0.0928820896991104 0.0
1.5132092742887759 0.0016466855236743 0.0
1.6253426260532784 -0.1050115531437601 0.0
1.6830296072987740 -0.0389686266919943 0.0
1.2148300825753944 -0.0809906562201567 0.0
1.5896501194350705 -0.0192798720517198 0.0
1.0351787168083302 0.0491977314524384 0.0
0.9273529244803941 0.0213159616922989 0.0
1.3761475863639676 -0.0583244005036157 0.0
0.9495839177204635 0.0060675821505848 0.0
0.9297765064139096 -0.0492521529085952 0.0
1.0523077257935536 0.0254879753372388 0.0
1.2709639400978290 -0.0408245728495621 0.0
1.7985181160935440 -0.1353189287479542 0.0
1.2815179424494521 0.0003202716660438 0.0
1.0172613232131433 -0.0659279313472481 0.0
1.3789840218049629 -0.0873256310277627 0.0
1.3656508633293931 0.0386333890527434 0.0
1.3240684194231624 0.0033052739842024 0.0
1.2272528175134851 -0.0214281383264038 0.0
1.0723740248090829 -0.0451463648415846 0.0
1.1120362668258801 0.0021110162690353 0.0
1.2536192274024580 0.0209891768546372 0.0
1.4471390780019406 -0.0630929996168162 0.0
1.2307552317907533 -0.0263040563380747 0.0
1.2091701881017540 -0.2016765407290265 0.0
1.1358474715565710 0.3221240743416519 0.0
1.0922862150273462 0.1816089005268688 0.0
1.3684298979236666 -0.0634404207115700 0.0
1.2705979114983230 0.0722679714573328 0.0
1.4014977611519803 0.0559047528373614 0.0
1.2318973776377975 0.0202083292809062 0.0
1.7381475421196162 0.0673933350594820 0.0
1.4795935435611904 -0.0069363428638528 0.0
1.3166715695379598 -0.0485322507099456 0.0
0.9612779870641951 -0.0090516621759824 0.0
1.1145373718522484 -0.0216210750896596 0.0
1.6038357037105246 -0.1323963676268147 0.0
1.3090439346423446 0.0497977013677345 0.0
1.4458778733597517 0.0702195504227992 0.0
1.3311006296963439 -0.0404958933894479 0.0
1.2443616551167176 -0.0427867162802751 0.0
1.5342469648527564 -0.0418223527011992 0.0
1.6069551775680433 0.0410271203900423 0.0
1.3143395130315245 0.0105656231216638 0.0
1.3592985573748877 -0.0810483079669933 0.0
1.0922221281391342 -0.0838958424150582 0.0
1.0061702909914485 -0.0221035701098722 0.0
1.4627803205100751 -0.1573838323089480 0.0
1.2383869795883560 -0.1009943018015931 0.0
1.5836594466971989 0.0133060313452987 0.0
0.6597325059514322 0.0267039973470041 0.0
0.9104928950461465 0.0883613641655954 0.0
1.6625742444966465 0.0136977073270760 0.0
1.2466697012132142 -0.0062106992460011 0.0
0.9356281055686138 0.0086974826670839 0.0
1.2904047438414119 -0.0809818100997432 0.0
1.1972970712038051 0.0057367012624263 0.0
1.1229470844039702 -0.2689043833045210 0.0
0.8707451421103372 0.0370547179097503 0.0
1.5909065455810316 0.0109616837260787 0.0
1.6621182050933196 -0.0099260193492272 0.0
0.8981099051337327 0.0788628024060222 0.0
1.6048438053915399 0.0558949653593585 0.0
1.0916792937089335 -0.1788520976080679 0.0
1.2245930132635965 0.0328195718571356 0.0
1.1126194308922286 -0.0387954174044640 0.0
1.2322407145026490 0.0166162990391306 0.0
1.6679835111484369 -0.0226327499577577 0.0
1.4064813827977569 -0.2032551785098790 0.0
1.4445366155930655 0.0438416700615929 0.0
1.4494970960985403 0.0875385243387486 0.0
1.3454752030866552 -0.0509261382194148 0.0
0.7468296792299238 -0.0901969094981203 0.0
1.3784270342765885 -0.1410425350572452 0.0
0.6665806124363660 -0.0066873984469284 0.0
1.2548837674133120 -0.0710384447713653 0.0
1.0445409853131229 0.0253369665919802 0.0
1.2182230872822821 -0.0164042963952559 0.0
1.1697661535852832 0.2291685254614985 0.0
1.2375667919709716 0.0813427973660567 0.0
0.7781606512806561 0.0090455441435493 0.0
1.2316235560162054 -0.0720320111168518 0.0
0.7118694905505315 0.0031302799330298 0.0
1.6526203089963480 0.0021077195603591 0.0
1.0159127307461755 0.0771862358477007 0.0
1.3224811382550490 -0.1077486632358523 0.0
1.1372407522069454 0.0012427028232590 0.0
1.4720717508179946 -0.1394198930972469 0.0
0.6025792035977060 -0.0440740896130826 0.0
1.1784940775156347 -0.0781781194077451 0.0
1.2124231329715582 -0.0954229355198755 0.0
1.2799986020089995 -0.0986073964804052 0.0
1.6332308758221963 -0.0139291506085963 0.0
1.6019676901603441 0.0493481898895295 0.0
0.9458460548715444 0.0566695550008934 0.0
1.2427900952930637 -0.0431306968112089 0.0
0.7666397835336388 0.0954888868854760 0.0
0.6016384017456364 -0.0029269745091920 0.0
0.4890432635962491 0.0255074092776796 0.0
1.3584646756833263 -0.0803823583007179 0.0
0.6169579303793201 0.1574708266233664 0.0
0.7079571999719960 -0.0065015596080936 0.0
1.5424113260631152 0.0218611330553004 0.0
1.2983439407275024 -0.0577366467911787 0.0
1.2119736256019285 -0.0381206889076203 0.0
1.5622763189584796 0.0641917292086026 0.0
1.3464156000523333 -0.0628679512780073 0.0
1.5704346918249716 0.0297626542726682 0.0
1.1822411750605435 0.0571809655201225 0.0
1.1214951079454150 -0.2351522517498916 0.0
1.1948994858332869 0.1525976540510816 0.0
1.1088792568647581 0.2243819153550628 0.0
1.0736707719869465 -0.0465746300715027 0.0
1.1845052544414596 0.0258455229028552 0.0
0.9320783550178545 0.0414549954997348 0.0
0.6246202402368032 0.1379379024463132 0.0
0.9917201088725645 -0.0117438136458631 0.0
1.3230226038797024 -0.0333470394792173 0.0
0.7675357714053446 0.0678192370866555 0.0
1.2216487116832799 0.0423732175740523 0.0
1.3628035081228975 -0.0548577074705583 0.0
0.9214883034925627 -0.0140423443114561 0.0
1.2627209133197936 0.0324647269207348 0.0
1.5172490813857875 0.0487058383530136 0.0
1.1974927276806302 -0.1503699621433681 0.0
1.2998421057556717 -0.0961045155957959 0.0
0.5737874868815227 0.1357566806645659 0.0
0.5737522567771706 0.1080895640414376 0.0
0.8410388311640610 -0.0129543160072752 0.0
1.4551007313516129 -0.0843259134175476 0.0
1.3662577252294192 -0.0684985592709008 0.0
0.6011616228188906 0.1556736999159561 0.0
0.7181347860181356 -0.0504383763995159 0.0
1.1204164231017173 0.0202478744732984 0.0
1.4332571323725589 -0.0963375044357171 0.0
0.9841428956358719 -0.0119264201980102 0.0
1.2486147050243774 0.0111132806278896 0.0
1.3351897855281631 -0.0684935171837943 0.0
0.9626734611970230 0.0083111534585518 0.0
0.8732931883252362 0.0706912015042308 0.0
1.3261186587483338 -0.0004405610628152 0.0
0.7735830966326063 -0.0265959827589209 0.0
1.5613912918685890 -0.0254959848394676 0.0
0.7688926003771852 0.0216326099008474 0.0
0.7752899991168619 -0.0290075131909117 0.0
1.2785119935190026 -0.0710441629933956 0.0
1.3320809357244265 -0.0126674872212215 0.0
0.9930935882035720 0.0097912080323058 0.0
0.6434976416096518 0.1779534638256273 0.0
0.9104902767962353 -0.0043761885229426 0.0
1.1871605467064368 -0.0425900590624386 0.0
0.8261754025379454 0.0869887596239716 0.0
1.1896337418390066 0.1221289058675112 0.0
1.1333180610652991 -0.0361433904701079 0.0
0.6826506470259277 0.0183303881445080 0.0
1.5075294708782767 -0.0194641258736843 0.0
0.9075674828221275 -0.0115902792173760 0.0
1.5306150191012116 -0.0232656292747242 0.0
0.4750373130721389 -0.0378043194267222 0.0
1.4057276767322084 -0.1585493627759748 0.0
1.5788508445806173 -0.0131326838481976 0.0
0.6008862666559849 0.1130003942426412 0.0
0.7815331383535581 -0.0247365885304208 0.0
1.5771443153719100 0.0690944843650757 0.0
0.9395407654220559 0.0856812900274347 0.0
1.5552073788357077 0.0546230126030204 0.0
1.0508231058710431 -0.0304149382088937 0.0
0.8036111881490781 -0.0581306480357719 0.0
0.6975513086103226 -0.0266750808032154 0.0
1.0171729036350659 -0.0256674216311315 0.0
1.0004772093676151 0.0296538765529989 0.0
1.4571789756087317 0.0131685295862164 0.0
0.5649113458894243 0.0366881099304971 0.0
0.8793125158532061 -0.0607849488969384 0.0
0.8509450657284576 0.0516089050461245 0.0
1.4229739051214445 0.0766140494566200 0.0
0.8039487301994105 -0.1979187424592156 0.0
0.8288393537597983 -0.0262704259866961 0.0
0.5307246769208913 -0.0479729286213681 0.0
1.0988127747137535 0.0066826332025192 0.0
0.7319347079025121 0.1850146905473619 0.0
0.9008382316570214 0.0433371458708765 0.0
1.2633451846338160 -0.1275018533194588 0.0
0.7677781405883507 -0.0177421401965269 0.0
0.9022212951813250 -0.0019593903964104 0.0
1.0524218962271381 -0.0236122457884758 0.0
0.7923505241772383 -0.0293305156374151 0.0
0.7675933010518733 -0.0454403469094302 0.0
1.4798698296483397 0.0275827925761253 0.0
0.8022597484718629 -0.0318954848936821 0.0
1.0372193144625805 -0.0653357149588970 0.0
0.8396843993329338 0.0547348444338035 0.0
1.3016580818588217 -0.0506524502878278 0.0
0.6423056929087594 -0.0163830092731870 0.0
0.4393182286525091 0.0075313873999406 0.0
1.1658023170227663 -0.0681990014905062 0.0
0.8372662505851828 0.1006112230893792 0.0
0.7945816803346654 -0.0167412336782726 0.0
0.9583221363799058 0.0566260959493094 0.0
1.2808314202945861 -0.0239034317250117 0.0
0.6616223557209054 -0.0197553051857023 0.0
1.2110995130251516 0.1848575698736677 0.0
1.4903436091288906 0.0037222357623424 0.0
0.7110419441023332 -0.0123866141792026 0.0
1.1410817235379531 0.0047333110272660 0.0
1.2496744354118454 -0.0521190077290336 0.0
1.1283538667563318 -0.0458959320165976 0.0
1.3662970239222980 -0.1104850372424902 0.0
0.5018842047317640 0.1998592473874900 0.0
1.7276226370161318 0.0210943722568253 0.0
1.2941432672079509 0.0249690790584863 0.0
0.5688864797980615 0.0509444227100421 0.0
1.4031084226805770 -0.1295760806885329 0.0
1.4919363167903532 -0.0928283872777407 0.0
0.6474874694349554 -0.0062548762021126 0.0
1.0231505432326777 -0.0070237331149353 0.0
0.6723845391510836 -0.0389989237957269 0.0
0.9514556976279381 -0.0774161380751643 0.0
0.7846485114863866 -0.0535003668374966 0.0
0.4311178494822979 0.2053713772850516 0.0
1.1426603341169101 0.2166383028316157 0.0
1.5951947774842243 0.0109551822676013 0.0
0.5953524227219328 0.2124504040503683 0.0
1.5737419404332311 -0.0597044104275623 0.0
1.7452729468533499 0.0963421549542200 0.0
0.5691639140218925 0.2002043771680417 0.0
1.4798721521112623 0.0441252210296339 0.0
1.4072566014980943 -0.1413292897122359 0.0
0.9275433831061201 0.2476045015243507 0.0
1.2931703050550298 -0.0189932403891255 0.0
1.3210320147493260 0.0190304752042570 0.0
0.7802618140328653 0.0899227750348617 0.0
1.3389525153085560 -0.1091269507939785 0.0
0.7045026219504302 -0.0564359038261047 0.0
0.6177960215529295 0.1852513546831787 0.0
0.4360074886211527 0.0240211335674731 0.0
1.2275160607022766 -0.0298912268537326 0.0
0.8867358626904895 -0.2737911424123955 0.0
1.4135132806408948 0.0988391493201027 0.0
1.2951676814749316 -0.1011161040196847 0.0
0.5651273065990353 -0.0112718601119429 0.0
0.5872181759150572 0.0478352080060702 0.0
0.7009932653101645 0.0178657974180661 0.0
1.1306993825145948 0.0135878417822553 0.0
1.2013532005570993 0.2723633553742402 0.0
0.5717901241306731 -0.0348391888488376 0.0
1.1567053598398203 -0.0505192529293540 0.0
0.5946393786897453 0.0412400534436456 0.0
1.5703113385123213 0.0395966208848981 0.0
0.4759674850156706 0.2405990933797759 0.0
0.7487315616583901 -0.1206181708594479 0.0
1.5379495703175325 -0.0446852270310725 0.0
1.2568639463310500 0.0353737359186985 0.0
1.4924709546455148 -0.1320733292360164 0.0
0.6855650312602103 0.0058980849206326 0.0
0.8703842424677539 -0.0340370198648529 0.0
1.4525521084405379 -0.1030496640453759 0.0
1.3460271481034574 -0.0687183316125459 0.0
1.0214397599549003 0.0619067050663117 0.0
1.4457920647995819 0.0364932367864143 0.0
1.3105442687040447 -0.0724611117210627 0.0
1.2533532029192758 0.1280999440662304 0.0
0.9014995575801070 -0.0075141777977577 0.0
0.7426893154474570 -0.0213780123569391 0.0
0.6742371129596093 -0.0461856881655968 0.0
1.3132867703088236 -0.0715494359454661 0.0
1.3066407455545559 -0.0492644314246234 0.0
1.1201330519288530 0.1114604495036392 0.0
0.3640913820829505 0.0295717649108161 0.0
1.4346778654723111 -0.0957898332842765 0.0
0.3236998792584467 0.1118073173668736 0.0
0.6907965244766167 0.1208873536291221 0.0
1.1042181997538210 0.0195083668289877 0.0
0.5397012192021572 -0.1153233154639740 0.0
1.1469269457236702 -0.3116952801801717 0.0
1.3521386558070048 -0.0693654751414428 0.0
1.6092149970508789 -0.0180076667036297 0.0
0.7307433648262064 0.1117711684794735 0.0
1.5229331160543169 -0.0608994761606583 0.0
0.9274861881190544 -0.0330310946756574 0.0
1.3638940776523230 -0.0582442058000291 0.0
0.9302785035258894 -0.0258408844316594 0.0
0.5166766721371860 0.1978441569466490 0.0
0.9091985240977718 -0.0545302325223692 0.0
1.0278122269191905 -0.0640430556957262 0.0