# vtk DataFile Version 3.0
LucasCarvalhoTCC Results
ASCII

DATASET POLYDATA
FIELD FieldData 1
TIME 1 1 double
0.1

POINTS 600 float
0.0 2.0 0.0
0.25 1.989125 0.0
0.5 1.958 0.0
0.75 1.908875 0.0
1.0 1.844 0.0
1.25 1.765625 0.0
1.5 1.676 0.0
1.75 1.577375 0.0
2.0 1.472 0.0
2.25 1.362125 0.0
2.5 1.25 0.0
2.75 1.137875 0.0
3.0 1.028 0.0
3.25 0.922625 0.0
3.5 0.8240000000000001 0.0
3.75 0.734375 0.0
4.0 0.6560000000000001 0.0
4.25 0.5911249999999999 0.0
4.5 0.542 0.0
4.75 0.510875 0.0
5.0 0.5 0.0
5.25 0.5036250000000004 0.0
5.5 0.5140000000000002 0.0
5.75 0.5303750000000003 0.0
6.0 0.5519999999999996 0.0
6.25 0.578125 0.0
6.5 0.6080000000000005 0.0
6.75 0.6408749999999999 0.0
7.0 0.6760000000000002 0.0
7.25 0.7126249999999992 0.0
7.5 0.75 0.0
7.75 0.7873750000000004 0.0
8.0 0.8239999999999994 0.0
8.25 0.8591250000000001 0.0
8.5 0.8919999999999999 0.0
8.75 0.921875 0.0
9.0 0.9479999999999991 0.0
9.25 0.9696250000000011 0.0
9.5 0.9859999999999984 0.0
9.75 0.9963750000000013 0.0
10.0 1.0 0.0
0.0 0.0 0.0
10.0 0.0 0.0
0.124999999999674 1.994562500000014 0.0
0.3749999999999947 1.973562500000001 0.0
0.6249999999999918 1.933437500000002 0.0
0.874999999999979 1.876437500000006 0.0
1.124999999999963 1.804812500000012 0.0
1.374999999999944 1.72081250000002 0.0
1.624999999999985 1.626687500000006 0.0
1.874999999999953 1.52468750000002 0.0
2.124999999999936 1.417062500000028 0.0
2.374999999999952 1.306062500000022 0.0
2.624999999999919 1.193937500000036 0.0
2.87499999999992 1.082937500000035 0.0
3.124999999999946 0.9753125000000229 0.0
3.374999999999948 0.8733125000000204 0.0
3.624999999999972 0.77918750000001 0.0
3.874999999999963 0.6951875000000118 0.0
4.124999999999968 0.6235625000000082 0.0
4.394409538298571 0.5627485257243309 0.0
4.583333333333322 0.5316250000000015 0.0
4.666666666666668 0.5212499999999999 0.0
4.833333333333334 0.50725 0.0
4.916666666666667 0.503625 0.0
5.083333333333334 0.5012083333333335 0.0
5.166666666666666 0.502416666666667 0.0
5.333333333333334 0.5070833333333337 0.0
5.416666666666667 0.510541666666667 0.0
5.583333333333334 0.5194583333333336 0.0
5.666666666666666 0.5249166666666669 0.0
5.833333333333338 0.5375833333333339 0.0
5.916666666666661 0.544791666666666 0.0
6.105781577147724 0.5630541748119369 0.0
6.375 0.5930625000000003 0.0
6.624999999999988 0.6244374999999988 0.0
6.874999999999994 0.6584374999999991 0.0
7.125 0.6943124999999997 0.0
7.375 0.7313124999999996 0.0
7.624999999999994 0.7686874999999992 0.0
7.875 0.8056874999999999 0.0
8.125 0.8415624999999998 0.0
8.374999999999991 0.8755624999999989 0.0
8.624999999999995 0.9069374999999993 0.0
8.874999999999995 0.9349374999999991 0.0
9.125 0.9588125000000001 0.0
9.375 0.9778124999999998 0.0
9.625 0.9911874999999999 0.0
9.875 0.9981875000000007 0.0
0.0 1.799999999999167 0.0
0.0 1.6 0.0
0.0 1.400000000001387 0.0
0.0 1.200000000002774 0.0
0.0 1.000000000004117 0.0
0.0 0.8000000000033287 0.0
0.0 0.6000000000024965 0.0
0.0 0.4000000000016644 0.0
0.0 0.200000000000832 0.0
0.199999999999856 0.0 0.0
0.3999999999996677 0.0 0.0
0.5999999999994683 0.0 0.0
0.7999999999993286 0.0 0.0
0.9999999999991888 0.0 0.0
1.199999999999033 0.0 0.0
1.399999999998576 0.0 0.0
1.599999999997992 0.0 0.0
1.799999999997408 0.0 0.0
1.999999999996825 0.0 0.0
2.199999999996241 0.0 0.0
2.399999999995657 0.0 0.0
2.599999999995073 0.0 0.0
2.79999999999449 0.0 0.0
2.999999999993906 0.0 0.0
3.199999999993322 0.0 0.0
3.399999999992738 0.0 0.0
3.599999999992154 0.0 0.0
3.799999999991571 0.0 0.0
3.999999999991022 0.0 0.0
4.199999999991187 0.0 0.0
4.399999999991491 0.0 0.0
4.599999999991795 0.0 0.0
4.799999999992099 0.0 0.0
4.999999999992403 0.0 0.0
5.199999999992706 0.0 0.0
5.39999999999301 0.0 0.0
5.599999999993313 0.0 0.0
5.799999999993618 0.0 0.0
5.999999999993922 0.0 0.0
6.199999999994227 0.0 0.0
6.39999999999453 0.0 0.0
6.599999999994833 0.0 0.0
6.799999999995138 0.0 0.0
6.999999999995442 0.0 0.0
7.199999999995747 0.0 0.0
7.39999999999605 0.0 0.0
7.599999999996353 0.0 0.0
7.799999999996658 0.0 0.0
7.999999999996962 0.0 0.0
8.199999999997265 0.0 0.0
8.399999999997569 0.0 0.0
8.599999999997873 0.0 0.0
8.799999999998176 0.0 0.0
8.99999999999848 0.0 0.0
9.199999999998786 0.0 0.0
9.399999999999089 0.0 0.0
9.599999999999392 0.0 0.0
9.799999999999697 0.0 0.0
10.0 0.1999999999995579 0.0
10.0 0.3999999999989749 0.0
10.0 0.5999999999989468 0.0
10.0 0.7999999999994734 0.0
0.913963423524136 0.9126937851647636 0.0
1.629657910441747 0.8286436141773268 0.0
2.300136613917738 0.6369890708869279 0.0
0.5989085226155619 1.38125543468559 0.0
1.274155622640533 1.242773398230304 0.0
2.860215383945273 0.5217401976756945 0.0
9.469653920408135 0.4910067017840992 0.0
8.984679546317787 0.4696119782494839 0.0
8.499397693277212 0.4463630640980716 0.0
3.270918412356206 0.4522692359356972 0.0
1.223039611612243 0.5146439900227544 0.0
2.024812732135938 1.00818256045515 0.0
0.5365376864627701 0.5434316309416508 0.0
8.114834335444021 0.4602948767329583 0.0
7.742261962994204 0.4117304941858466 0.0
0.9443382341364558 1.456061359265878 0.0
1.665275621558886 1.201744468407863 0.0
1.89566112584099 0.4397284596316843 0.0
3.691409759982064 0.3560936332572802 0.0
7.368457390036411 0.3792926046732459 0.0
0.5071184951703254 0.9340893429149442 0.0
0.3822273842356539 1.647625881691675 0.0
5.916285335387544 0.2564903116750689 0.0
5.628860531758535 0.2582323053999509 0.0
5.380471017960128 0.2502349014663197 0.0
5.139244585769944 0.2549145445969738 0.0
2.686085237972266 0.8031095648160084 0.0
4.507599040026292 0.263176944655695 0.0
6.983755234374982 0.3380000000001097 0.0
9.720925955181613 0.6635813325201156 0.0
1.288006195687152 0.8759679848503046 0.0
9.20556379558699 0.6923669083350594 0.0
2.319913492084225 0.9512500928262699 0.0
8.73203612228155 0.6151508464420534 0.0
4.868679481352366 0.2526598053940744 0.0
4.10358044398202 0.3012437332986487 0.0
6.602422946953217 0.3126221952225479 0.0
2.534693527909069 0.3583319619586092 0.0
6.193332317503376 0.2894654215336858 0.0
0.8804088217382579 0.3735513844182569 0.0
0.7663303172393539 1.679065267574722 0.0
3.081211528283084 0.6968015573146217 0.0
1.241762689885858 1.521465072418641 0.0
1.573472750763779 0.3374689934575129 0.0
1.475107933015155 1.403918544935278 0.0
0.8212739503602162 1.195790902469637 0.0
4.681049549092561 0.3558177014380842 0.0
9.439519900118443 0.7366884444350511 0.0
2.201393787062887 0.3261463175998884 0.0
2.015369189818184 0.7109460688851087 0.0
8.32727069655695 0.6360373328685593 0.0
8.961488632119996 0.7119124617705204 0.0
9.22773266034565 0.3109430611770705 0.0
0.3000513553073295 1.178778127105867 0.0
1.91985473842554 1.233084801189704 0.0
8.749827252515535 0.3049638092131281 0.0
3.50551132590258 0.5576614504134195 0.0
3.040500962406976 0.290446660105673 0.0
9.72097519930939 0.3037986529514364 0.0
0.3073166349239687 0.3249300260882615 0.0
0.2948185331392187 0.7229775107826154 0.0
1.46029425821417 1.06552904833304 0.0
0.8085718129253527 0.673531272847494 0.0
7.913326191751847 0.5738936378911789 0.0
8.295349499871781 0.2556682497524391 0.0
4.31359646688283 0.3665214152100782 0.0
7.542842082022704 0.5249918217576657 0.0
1.058357552227335 1.116692590939024 0.0
2.214297272750292 1.159898327391242 0.0
2.901187336648686 0.8282146771898153 0.0
3.933498145061447 0.4325241689837319 0.0
7.956006969037984 0.2667411694088205 0.0
7.172393179434975 0.4835114022190097 0.0
1.440243631802057 0.6689433452646625 0.0
3.458541882144431 0.2581755850286561 0.0
5.791617360065465 0.3978542524532168 0.0
5.981529865241493 0.3900667299390458 0.0
1.083462543944253 0.7203994120564634 0.0
1.78518471978951 1.008552691762234 0.0
2.77360122246243 0.2689852172070111 0.0
2.565134389978369 0.9928826788184764 0.0
2.543046005790158 0.6034091352176242 0.0
3.293038780485421 0.6769811703257343 0.0
6.790787388653942 0.4353933509634578 0.0
1.140204059461831 0.2538227257007896 0.0
0.6242104065654487 0.2738473600765566 0.0
6.393430278703709 0.3766405270445946 0.0
8.533059390324546 0.6950580701614406 0.0
0.9961263693263854 1.612128843772703 0.0
1.697598586607002 0.5781950992180334 0.0
8.087930458724863 0.6517815437732153 0.0
0.2748906317360928 1.770749713716887 0.0
0.5785110002099415 1.757022387413085 0.0
5.550004842562332 0.3852675728674634 0.0
4.948161884155141 0.3480305424737933 0.0
1.741244734175577 1.381979611033466 0.0
5.312408927381063 0.3621256994047111 0.0
0.2492139438157334 1.453132031680879 0.0
7.597720022451821 0.2370268512906596 0.0
9.471021754366422 0.2472916581956264 0.0
7.714083843672875 0.600212897672991 0.0
4.520815862079482 0.3946753115680038 0.0
2.47356661122767 0.8007389356831706 0.0
7.325494311403363 0.528948935030723 0.0
7.147005275585743 0.2709670165999667 0.0
3.758046446289313 0.5474783841545341 0.0
3.893717059615281 0.1664960777568404 0.0
2.152835534199412 0.8614028741175742 0.0
8.995993312441625 0.1933410497113667 0.0
1.077676137392001 1.368204555688504 0.0
0.2429906229817933 0.9816066505657851 0.0
0.6261765586985547 1.180540007244081 0.0
9.81151801018651 0.816223424030724 0.0
0.6725442903064565 0.8425384371773644 0.0
1.74584086891446 0.2617492458514414 0.0
0.7667820686164357 1.440842670056678 0.0
8.539133693395232 0.1910926418035274 0.0
5.129145653242096 0.3632579123815574 0.0
6.816538849831732 0.2013284992826486 0.0
2.108503954619862 0.5359795950847274 0.0
6.933669557130528 0.4980836483776163 0.0
3.071406705674529 0.4919421055852253 0.0
2.001240035874449 0.2292738462614773 0.0
4.782473531509697 0.4061213127162872 0.0
0.5734126310178208 1.536352720889636 0.0
9.796714529589472 0.4898048068674991 0.0
5.678359041645315 0.373719883316694 0.0
5.427661572827738 0.3646059266294788 0.0
2.075214597532947 1.226969224366912 0.0
3.251521478555126 0.2637671977660283 0.0
2.722180837291864 0.9710783334409533 0.0
9.333262390342384 0.8479609887828539 0.0
1.367251332770493 0.2041553944563636 0.0
1.870721433742522 0.7905989208842599 0.0
1.387906762913351 1.555741687747287 0.0
9.559918612869 0.8444052974080497 0.0
9.286795039366257 0.4698254290795815 0.0
1.507117480770146 1.225129516597721 0.0
[...]
POINT_DATA 600

VECTORS Velocity float
0.0000000000000000 0.0000000000000000 0.0
0.0000000000000000 0.0000000000000000 0.0
0.0000000000000000 0.0000000000000000 0.0
0.0000000000000000 0.0000000000000000 0.0
0.0000000000000000 0.0000000000000000 0.0
0.0000000000000000 0.0000000000000000 0.0
0.0000000000000000 0.0000000000000000 0.0
0.0000000000000000 0.0000000000000000 0.0
0.0000000000000000 0.0000000000000000 0.0
0.0000000000000000 0.0000000000000000 0.0
0.0000000000000000 0.0000000000000000 0.0
0.0000000000000000 0.0000000000000000 0.0
0.0000000000000000 0.0000000000000000 0.0
0.0000000000000000 0.0000000000000000 0.0
0.0000000000000000 0.0000000000000000 0.0
0.0000000000000000 0.0000000000000000 0.0
0.0000000000000000 0.0000000000000000 0.0
0.0000000000000000 0.0000000000000000 0.0
0.0000000000000000 0.0000000000000000 0.0
0.0000000000000000 0.0000000000000000 0.0
0.0000000000000000 0.0000000000000000 0.0
0.0000000000000000 0.0000000000000000 0.0
0.0000000000000000 0.0000000000000000 0.0
0.0000000000000000 0.0000000000000000 0.0
0.0000000000000000 0.0000000000000000 0.0
0.0000000000000000 0.0000000000000000 0.0
0.0000000000000000 0.0000000000000000 0.0
0.0000000000000000 0.0000000000000000 0.0
0.0000000000000000 0.0000000000000000 0.0
0.0000000000000000 0.0000000000000000 0.0
0.0000000000000000 0.0000000000000000 0.0
0.0000000000000000 0.0000000000000000 0.0
0.0000000000000000 0.0000000000000000 0.0
0.0000000000000000 0.0000000000000000 0.0
0.0000000000000000 0.0000000000000000 0.0
0.0000000000000000 0.0000000000000000 0.0
0.0000000000000000 0.0000000000000000 0.0
0.0000000000000000 0.0000000000000000 0.0
0.0000000000000000 0.0000000000000000 0.0
0.0000000000000000 0.0000000000000000 0.0
0.0000000000000000 0.0000000000000000 0.0
0.0000000000000000 0.0000000000000000 0.0
0.9009566495955991 -0.0666237155220929 0.0
0.0000000000000000 0.0000000000000000 0.0
0.0000000000000000 0.0000000000000000 0.0
0.0000000000000000 0.0000000000000000 0.0
0.0000000000000000 0.0000000000000000 0.0
0.0000000000000000 0.0000000000000000 0.0
0.0000000000000000 0.0000000000000000 0.0
0.0000000000000000 0.0000000000000000 0.0
0.0000000000000000 0.0000000000000000 0.0
0.0000000000000000 0.0000000000000000 0.0
0.0000000000000000 0.0000000000000000 0.0
0.0000000000000000 0.0000000000000000 0.0
0.0000000000000000 0.0000000000000000 0.0
0.0000000000000000 0.0000000000000000 0.0
0.0000000000000000 0.0000000000000000 0.0
0.0000000000000000 0.0000000000000000 0.0
0.0000000000000000 0.0000000000000000 0.0
0.0000000000000000 0.0000000000000000 0.0
0.0000000000000000 0.0000000000000000 0.0
0.0000000000000000 0.0000000000000000 0.0
0.0000000000000000 0.0000000000000000 0.0
0.0000000000000000 0.0000000000000000 0.0
0.0000000000000000 0.0000000000000000 0.0
0.0000000000000000 0.0000000000000000 0.0
0.0000000000000000 0.0000000000000000 0.0
0.0000000000000000 0.0000000000000000 0.0
0.0000000000000000 0.0000000000000000 0.0
0.0000000000000000 0.0000000000000000 0.0
0.0000000000000000 0.0000000000000000 0.0
0.0000000000000000 0.0000000000000000 0.0
0.0000000000000000 0.0000000000000000 0.0
0.0000000000000000 0.0000000000000000 0.0
0.0000000000000000 0.0000000000000000 0.0
0.0000000000000000 0.0000000000000000 0.0
0.0000000000000000 0.0000000000000000 0.0
0.0000000000000000 0.0000000000000000 0.0
0.0000000000000000 0.0000000000000000 0.0
0.0000000000000000 0.0000000000000000 0.0
0.0000000000000000 0.0000000000000000 0.0
0.0000000000000000 0.0000000000000000 0.0
0.0000000000000000 0.0000000000000000 0.0
0.0000000000000000 0.0000000000000000 0.0
0.0000000000000000 0.0000000000000000 0.0
0.0000000000000000 0.0000000000000000 0.0
0.0000000000000000 0.0000000000000000 0.0
0.0000000000000000 0.0000000000000000 0.0
0.0000000000000000 0.0000000000000000 0.0
1.0000000000000000 0.0000000000000000 0.0
1.0000000000000000 0.0000000000000000 0.0
1.0000000000000000 0.0000000000000000 0.0
1.0000000000000000 0.0000000000000000 0.0
1.0000000000000000 0.0000000000000000 0.0
1.0000000000000000 0.0000000000000000 0.0
1.0000000000000000 0.0000000000000000 0.0
1.0000000000000000 0.0000000000000000 0.0
1.0000000000000000 0.0000000000000000 0.0
0.0000000000000000 0.0000000000000000 0.0
0.0000000000000000 0.0000000000000000 0.0
0.0000000000000000 0.0000000000000000 0.0
0.0000000000000000 0.0000000000000000 0.0
0.0000000000000000 0.0000000000000000 0.0
0.0000000000000000 0.0000000000000000 0.0
0.0000000000000000 0.0000000000000000 0.0
0.0000000000000000 0.0000000000000000 0.0
0.0000000000000000 0.0000000000000000 0.0
0.0000000000000000 0.0000000000000000 0.0
0.0000000000000000 0.0000000000000000 0.0
0.0000000000000000 0.0000000000000000 0.0
0.0000000000000000 0.0000000000000000 0.0
0.0000000000000000 0.0000000000000000 0.0
0.0000000000000000 0.0000000000000000 0.0
0.0000000000000000 0.0000000000000000 0.0
0.0000000000000000 0.0000000000000000 0.0
0.0000000000000000 0.0000000000000000 0.0
0.0000000000000000 0.0000000000000000 0.0
0.0000000000000000 0.0000000000000000 0.0
0.0000000000000000 0.0000000000000000 0.0
0.0000000000000000 0.0000000000000000 0.0
0.0000000000000000 0.0000000000000000 0.0
0.0000000000000000 0.0000000000000000 0.0
0.0000000000000000 0.0000000000000000 0.0
0.0000000000000000 0.0000000000000000 0.0
0.0000000000000000 0.0000000000000000 0.0
0.0000000000000000 0.0000000000000000 0.0
0.0000000000000000 0.0000000000000000 0.0
0.0000000000000000 0.0000000000000000 0.0
0.0000000000000000 0.0000000000000000 0.0
0.0000000000000000 0.0000000000000000 0.0
0.0000000000000000 0.0000000000000000 0.0
0.0000000000000000 0.0000000000000000 0.0
0.0000000000000000 0.0000000000000000 0.0
0.0000000000000000 0.0000000000000000 0.0
0.0000000000000000 0.0000000000000000 0.0
0.0000000000000000 0.0000000000000000 0.0
0.0000000000000000 0.0000000000000000 0.0
0.0000000000000000 0.0000000000000000 0.0
0.0000000000000000 0.0000000000000000 0.0
0.0000000000000000 0.0000000000000000 0.0
0.0000000000000000 0.0000000000000000 0.0
0.0000000000000000 0.0000000000000000 0.0
0.0000000000000000 0.0000000000000000 0.0
0.0000000000000000 0.0000000000000000 0.0
0.0000000000000000 0.0000000000000000 0.0
0.0000000000000000 0.0000000000000000 0.0
0.0000000000000000 0.0000000000000000 0.0
1.0480178168359240 -0.2148702344153798 0.0
0.9882461280756143 -0.0692386285345545 0.0
0.9964576179903017 -0.0363263476728293 0.0
1.0502408773513716 0.1326202896119344 0.0
1.0655603887122076 0.0063597011915080 0.0
1.0821103939694254 -0.0220832747628215 0.0
1.0905718634581834 -0.0418253641409823 0.0
1.0808294924447182 0.0020476204099295 0.0
1.1143738258677078 -0.0272255943324561 0.0
1.1201466652818803 -0.0335983547516234 0.0
1.1326627244068059 -0.0122164073680038 0.0
1.1268613456031764 0.0045456283980768 0.0
1.1372238184151799 0.0170505042031125 0.0
1.1339622818450605 -0.0371453759036110 0.0
1.0344909751834286 0.0026379269846814 0.0
1.1166751100007670 -0.0445883632699326 0.0
1.0471758779615217 0.0587856404272876 0.0
1.1631076763865433 0.0244080309263284 0.0
1.1448451073494659 0.0143660886557255 0.0
1.0872449983355581 -0.0166172324052811 0.0
1.1237550926546460 -0.0342439059499835 0.0
1.0373155704202772 -0.0203104255705891 0.0
1.2036360044085281 -0.0206067081478465 0.0
1.1960680848784693 0.0011145783078815 0.0
1.0526977967601909 0.0389059228825371 0.0
1.1268850769123533 -0.0327284695897241 0.0
1.2768052510168144 0.0149052366205602 0.0
1.2686589849584620 -0.0097323751952267 0.0
1.2751466598278516 0.0082668747265208 0.0
1.2903467553317678 0.0298275805298160 0.0
1.1811488781191677 -0.0657887694725319 0.0
1.2878331595337433 -0.0098421237803438 0.0
1.2766025827907144 0.0229567246107793 0.0
1.0848575766423172 0.0133643812054370 0.0
1.0749731912108191 -0.0087438447441398 0.0
1.1772769768467419 -0.0183754434789635 0.0
1.1135800520514227 -0.0621661740649473 0.0
1.1693586416285988 0.0456134210936994 0.0
1.2684071070652985 -0.0262550418341080 0.0
1.3182095585390303 -0.0497872308170332 0.0
1.3571019139399219 -0.0284526435764228 0.0
1.0845230975735884 -0.0130630176123977 0.0
1.3069992663785595 -0.0260301291170187 0.0
1.0794836769680058 0.0170080629651110 0.0
1.1793354120691033 -0.0535849597705278 0.0
1.1734215570073860 -0.0606471079758567 0.0
1.2210985428318952 -0.0890989920177349 0.0
1.0743266004921463 -0.0374887171695473 0.0
1.2308341947867845 -0.0607132863740784 0.0
1.0801045056265963 0.0018437232864586 0.0
1.3678407304137066 -0.0652348092995819 0.0
1.2584066259738080 -0.0045937196846798 0.0
1.0944844584958897 -0.0515255915456955 0.0
1.0839017742371815 -0.0316009757794835 0.0
1.2635123351875410 0.0266542180730096 0.0
1.1699055567819496 -0.0021329764409521 0.0
1.2038682454920850 -0.0009712464192942 0.0
1.0338082714309971 0.0459763176881811 0.0
1.2053979164610211 -0.0595046978490985 0.0
1.1889859485087024 0.0044472799952966 0.0
1.2619349841054797 -0.0665384104858310 0.0
1.1766286877149774 -0.0330494701105513 0.0
1.1577566663123429 -0.0803157909551998 0.0
1.1183619361074000 0.0894203622693564 0.0
1.0252281626834059 0.0824741703798073 0.0
1.1005421936095992 -0.0227018491566178 0.0
1.0553048768847371 0.0201128338157584 0.0
1.2681723445696940 0.0440010389129839 0.0
1.2040149656373527 0.0015860866573097 0.0
1.3786464485613845 0.0196362875519469 0.0
1.2772780728854733 0.0313972717341110 0.0
1.0839450918853046 -0.0073307583432494 0.0
1.1670449379824572 -0.1108176509344326 0.0
1.2074522983429030 -0.0686313297960865 0.0
1.2546307006633604 -0.0599190409835180 0.0
1.2101992454670805 0.0436098757870230 0.0
1.2504544414100613 0.0592245586197505 0.0
1.0646842773797229 -0.0120065753249560 0.0
1.1846288115011676 -0.0191959596292867 0.0
1.2939999189511342 -0.0171223072330975 0.0
1.2504163023203139 0.0328468568651844 0.0
1.0581515867354327 0.0039361216091179 0.0
1.1075209152898582 -0.0327420780795624 0.0
1.1674017118298647 -0.0201725224812395 0.0
1.1825300722475067 -0.1353198094649503 0.0
1.1040030158707943 -0.0448642300209874 0.0
1.2304207637016857 -0.1107595117750836 0.0
1.2775648938388191 -0.0237697764034430 0.0
1.0848414174059053 0.0145716989282083 0.0
1.0894439186201559 0.0228478469144516 0.0
1.3390803575440222 0.0357412654982151 0.0
1.2445001647006406 0.0380081911666668 0.0
1.2032520706606651 -0.0631112309184567 0.0
1.0605356850479819 -0.0179802208076315 0.0
1.2623192136634318 0.0303360126182238 0.0
1.1674558691895944 -0.0700807023295901 0.0
1.1806355345035524 0.0023379952591465 0.0
1.2370124557022804 0.0046330454676836 0.0
1.2622090742939132 -0.0053474884441739 0.0
1.2215448549858552 -0.0663519104197563 0.0
1.2520876208289546 0.0228809176293898 0.0
1.0459632389796554 0.0036183171283233 0.0
1.2089885977977399 -0.0048801463993798 0.0
1.2079964926765823 -0.0145838249994700 0.0
1.2620698539444635 0.0247332773945073 0.0
1.2713771557337457 -0.0051813451407042 0.0
1.1190250213651842 -0.0572583359402737 0.0
1.2436178695213909 0.0080469068526635 0.0
1.2317578347888276 0.0228454319871688 0.0
1.2741287398107477 -0.0667721936407391 0.0
0.9192867648569550 -0.0521785996421810 0.0
1.1025046147528723 -0.0456228545823746 0.0
0.9390609021893148 -0.0007152087431342 0.0
1.1153937191409631 -0.0281483747874687 0.0
1.0423462597948778 0.0537182753296077 0.0
1.0648949616971946 0.0172896304650053 0.0
1.1744685581812657 0.0578404535689567 0.0
1.0551566291573184 0.0304400077289906 0.0
1.0659181275056240 0.0119106118508000 0.0
1.0973728697224208 -0.0122557570330852 0.0
0.9521922256860949 0.0093484530087670 0.0
1.2900509879343862 0.0051026382694317 0.0
1.0805573251057583 0.0405154556006381 0.0
1.0524512507274659 -0.0301995918519947 0.0
1.0895772405605093 0.0071519085391651 0.0
1.1126128925216621 -0.0329456180510824 0.0
0.9324515866517258 -0.0211984404295820 0.0
1.0801002391274803 -0.0101092082616135 0.0
1.0922029674687195 -0.0087847872859376 0.0
1.0688536658497743 -0.0378003289386852 0.0
1.2201316750805393 0.0098396435291845 0.0
1.2216445150995607 0.0139963217406294 0.0
1.1799958647715283 -0.0342710159095385 0.0
1.1636439000195244 -0.0235690182223418 0.0
1.0170873593313328 -0.0236402751675161 0.0
0.9417093348485035 -0.0032609454547149 0.0
0.8704965788654613 0.0085932327130911 0.0
1.0863445975782315 -0.0274656809797517 0.0
0.9989822118904067 0.0038857731008861 0.0
0.9943119493128457 0.0085517147451475 0.0
1.1249743372402481 -0.0104974270579077 0.0
1.1054929490665482 -0.0282640379473646 0.0
1.2362619736120399 -0.0097484074637126 0.0
1.1150497108343052 0.0141194510401591 0.0
1.0875840200383344 -0.0152582804402128 0.0
1.2503649571483459 -0.0237514578874172 0.0
1.2001689047827040 0.0423135821986730 0.0
1.0553614486081093 -0.0330271264125468 0.0
1.0430851639397023 0.0515749390544627 0.0
1.0266440512846513 0.1109777602500007 0.0
1.0405837326454412 -0.0024570724821314 0.0
1.0911568292796363 -0.0052761707682324 0.0
0.9897359504894364 -0.0144006239097411 0.0
0.9762726796628410 -0.0151710134500416 0.0
1.0016907014824499 0.0028732489531601 0.0
1.0751088159589166 -0.0043129819103253 0.0
0.9460266360035688 0.0623947727500101 0.0
1.0293510808395032 0.0083770339770386 0.0
1.0801006716076276 -0.0174373679117937 0.0
1.0907079450844595 0.0077201104656842 0.0
1.1765537787303617 0.0147578626634730 0.0
1.1208262617392915 0.0099811587823561 0.0
1.0664544104225604 -0.0006060996199550 0.0
1.0430472716878774 -0.0272304426293480 0.0
0.9761810102063564 0.0073039700510379 0.0
0.9720746448579022 0.0085795851319385 0.0
0.9879418663302382 0.0029676501860887 0.0
1.1113679931089451 -0.0378253822499504 0.0
1.0943766344372756 -0.0261667659199884 0.0
0.9984264712371748 0.0170497726212290 0.0
0.9931554082365235 -0.0055115520165758 0.0
1.0776395581019540 0.0187576466266886 0.0
1.0941007781943028 -0.0315650101035332 0.0
1.0854239450914689 0.0271684282451798 0.0
1.0656123038108594 0.0133787040594902 0.0
1.0660295582374528 -0.0221133134384250 0.0
1.0745483567925613 -0.0001554601072558 0.0
1.0442309569128265 0.0059373407394704 0.0
1.1309134877965636 -0.0139850592079671 0.0
1.0173131319862554 -0.0025948667517419 0.0
1.1137311533222973 -0.0239280468681786 0.0
0.9719296372399057 0.0238478083195958 0.0
0.9436902463502628 -0.0059695890051002 0.0
1.0981160866873405 -0.0114118413596753 0.0
1.0595583652946525 -0.0025959755754546 0.0
1.0670462255836124 0.0144695284200763 0.0
0.9866412001986276 -0.0037762058430301 0.0
0.9447238597946110 0.0120834990607178 0.0
1.0259823290817411 -0.0058599651507058 0.0
1.0631012233747503 -0.0344759353675032 0.0
1.0200982059218640 0.0353536068030324 0.0
1.1577525023760968 -0.0506360720951192 0.0
0.9323742852602421 0.0106450527113431 0.0
1.1318263235141079 -0.0012466843631153 0.0
1.0561719527916884 -0.0000402758044136 0.0
1.1208867432003347 -0.0140806397505726 0.0
0.8567466385271563 -0.0011867836790320 0.0
1.1090507480100904 -0.0533872355663239 0.0
1.1294697659138007 -0.0063578683907601 0.0
0.9983560295133395 -0.0014884222136684 0.0
0.9658236831413555 -0.0221071453598596 0.0
1.1254685132186422 0.0218387198191088 0.0
1.0873456696672008 -0.0152367747101551 0.0
1.1242113741714947 0.0194523083976782 0.0
1.1378333468486190 -0.0407920819614151 0.0
0.9933750255502252 -0.0154318164568346 0.0
0.9606912405003615 -0.0051278901041217 0.0
1.0890572162332377 0.0043967840874989 0.0
1.0862558553937363 0.0070544684686802 0.0
1.2715976468363148 0.0019113424343021 0.0
0.9059717924068005 0.0150188199922345 0.0
1.0122080539260052 -0.0179411566904486 0.0
0.9857796537445001 0.0205992661689682 0.0
1.1792336311707794 0.0150908617516792 0.0
0.9393518727217157 -0.0423134225230116 0.0
0.9739975501805758 -0.0044970964314759 0.0
0.8764914549078365 -0.0033011709522119 0.0
1.1467147102649173 -0.0313597595000895 0.0
0.9628867635106491 0.0457687188788910 0.0
1.0183873751190344 0.0076004158349652 0.0
1.1007554251538432 -0.0477572274677025 0.0
0.9832085541981882 0.0142431565447318 0.0
1.0033454257485568 -0.0143755934251967 0.0
1.1277946335466906 -0.0291249218847350 0.0
0.9785243383165572 0.0068763454285633 0.0
0.9726772121636548 -0.0050598107339584 0.0
1.1309149157033884 0.0053865085659794 0.0
1.0183879272453980 0.0039198181982276 0.0
1.0146655170326617 0.0091734333627612 0.0
0.9424945686311041 0.0072533098024232 0.0
1.1048670846744575 -0.0334184878768756 0.0
0.8935056045284476 -0.0066579675347419 0.0
0.8071101222685224 0.0261696073811921 0.0
1.0553619585048657 0.0258657187536836 0.0
1.0373165889233062 -0.0051535296044289 0.0
0.9702877937540413 -0.0079267362718588 0.0
1.0462437243486962 -0.0105009560240376 0.0
1.0736247463132824 0.0020507356378534 0.0
0.9992498663776469 -0.0101708792155153 0.0
1.0504163664101114 0.0265786461472125 0.0
1.1135502397090171 -0.0034742194292638 0.0
0.8920276619191019 -0.0078824287897646 0.0
1.0755260943309279 -0.0186814520804852 0.0
1.0803235000620686 0.0007752420852372 0.0
1.0130562993755825 -0.0177727074724624 0.0
1.0939795439859938 -0.0351134719434355 0.0
0.8753876221971676 0.0534098246096610 0.0
1.2217950435408620 0.0106778237427908 0.0
1.0586491005392911 0.0082687660701774 0.0
0.8607061250042631 0.0381035709932001 0.0
1.0874574241286994 -0.0402058598859289 0.0
1.1316264281390953 -0.0393586627418296 0.0
0.9110001868407179 -0.0167946687030943 0.0
1.0234248246063076 0.0264296897836553 0.0
0.8892096123684250 0.0020432007150260 0.0
0.9915756324835420 -0.0191306949594081 0.0
0.9267283349495098 -0.0524869060673126 0.0
0.8279209499917745 0.0681959850196292 0.0
1.0530943618685780 0.0558254772913151 0.0
1.2136658079852507 0.0225467531177368 0.0
0.9300378073370070 0.0393592818125933 0.0
1.1136540367116956 0.0098282801135789 0.0
1.3067147279703735 -0.0307502787222288 0.0
0.9359002912714173 0.0355260950195059 0.0
1.1849754780622590 0.0286100795479960 0.0
1.1416738623297202 -0.0439212488891312 0.0
0.9926192381612360 0.1430580604620851 0.0
1.1321843167603813 -0.0304368809295466 0.0
1.1918542229587608 0.0051776085925554 0.0
0.9044850555082785 0.0352379128470032 0.0
1.1218509561783776 -0.0161595057126334 0.0
0.9947977410505231 -0.0335977372064144 0.0
0.9580672619311912 0.0356311153334172 0.0
0.7863234281493721 0.0500116803639175 0.0
1.0991966261139030 -0.0350318823305832 0.0
0.9770229851251641 -0.1374938449194185 0.0
1.1785234962876650 0.0146576755546457 0.0
1.1189727336098279 -0.0176598265082786 0.0
0.8499144426755122 -0.0140100462611750 0.0
0.8686338013342472 0.0408161778218742 0.0
0.9174434625943322 0.0029808062644812 0.0
1.0513140991904473 0.0450196763257475 0.0
1.0309155340730516 0.0832975644178793 0.0
0.8712769853534679 -0.0374538905059676 0.0
1.0730399607480565 -0.0208346314375800 0.0
0.8463639582358449 0.0463518274920082 0.0
1.2291706099365018 0.0063605643042581 0.0
0.8608141181432956 0.0849528452391464 0.0
0.9493521603613010 -0.0629487798589646 0.0
1.1931697025435588 -0.0317484238086634 0.0
1.1662025747102303 0.0166853712893343 0.0
1.1165566147431456 -0.0435329503364358 0.0
0.9117940143434357 0.0024591332902541 0.0
1.0337160800440885 -0.0098193799548570 0.0
1.0866633109453301 -0.0287401475652399 0.0
1.0658739788764564 -0.0165057291032108 0.0
1.0163341911091917 0.0702128024322465 0.0
1.1621839097930993 0.0128963068052950 0.0
1.1039984693569105 -0.0202361342668783 0.0
1.0516013746212105 0.0371072945007756 0.0
1.0483224160108764 0.0196275097279108 0.0
0.9246573930255209 -0.0151028341179653 0.0
0.8881665046200375 -0.0109052078895894 0.0
1.1086838397369445 -0.0346408007525670 0.0
1.0632697592464515 -0.0215207477422324 0.0
1.0476343284667364 0.0658139950783925 0.0
0.7626652435803649 0.0255569347413487 0.0
1.1773092498788025 -0.0569474358379779 0.0
0.7698493871612947 0.0252023044861149 0.0
0.9242938566952739 0.0281101733495351 0.0
1.1397753166095841 -0.0571119714765050 0.0
0.8387830592099753 -0.0830518160591499 0.0
1.0655013176599502 -0.1107636378739901 0.0
1.1097886889850010 -0.0249048370789787 0.0
1.1818351527026789 -0.0005791107063653 0.0
0.9272407209238390 0.0656176697718574 0.0
1.2750307151799314 -0.0301815481515385 0.0
1.0441358558616669 -0.0142853738762290 0.0
1.1114755919868762 -0.0301966697827059 0.0
1.0402723184218277 -0.0099620969680209 0.0
0.8824902389836096 0.0561163074847961 0.0
1.0030734618896378 -0.0215540804408643 0.0
1.0673477194629899 -0.0031222924502869 0.0