# vtk DataFile Version 3.0
LucasCarvalhoTCC Results
ASCII

DATASET POLYDATA
FIELD FieldData 1
TIME 1 1 double
1.9000000000000001

POINTS 600 float
0.0 2.0 0.0
0.25 1.989125 0.0
0.5 1.958 0.0
0.75 1.908875 0.0
1.0 1.844 0.0
1.25 1.765625 0.0
1.5 1.676 0.0
1.75 1.577375 0.0
2.0 1.472 0.0
2.25 1.362125 0.0
2.5 1.25 0.0
2.75 1.137875 0.0
3.0 1.028 0.0
3.25 0.922625 0.0
3.5 0.8240000000000001 0.0
3.75 0.734375 0.0
4.0 0.6560000000000001 0.0
4.25 0.5911249999999999 0.0
4.5 0.542 0.0
4.75 0.510875 0.0
5.0 0.5 0.0
5.25 0.5036250000000004 0.0
5.5 0.5140000000000002 0.0
5.75 0.5303750000000003 0.0
6.0 0.5519999999999996 0.0
6.25 0.578125 0.0
6.5 0.6080000000000005 0.0
6.75 0.6408749999999999 0.0
7.0 0.6760000000000002 0.0
7.25 0.7126249999999992 0.0
7.5 0.75 0.0
7.75 0.7873750000000004 0.0
8.0 0.8239999999999994 0.0
8.25 0.8591250000000001 0.0
8.5 0.8919999999999999 0.0
8.75 0.921875 0.0
9.0 0.9479999999999991 0.0
9.25 0.9696250000000011 0.0
9.5 0.9859999999999984 0.0
9.75 0.9963750000000013 0.0
10.0 1.0 0.0
0.0 0.0 0.0
10.0 0.0 0.0
0.124999999999674 1.994562500000014 0.0
0.3749999999999947 1.973562500000001 0.0
0.6249999999999918 1.933437500000002 0.0
0.874999999999979 1.876437500000006 0.0
1.124999999999963 1.804812500000012 0.0
1.374999999999944 1.72081250000002 0.0
1.624999999999985 1.626687500000006 0.0
1.874999999999953 1.52468750000002 0.0
2.124999999999936 1.417062500000028 0.0
2.374999999999952 1.306062500000022 0.0
2.624999999999919 1.193937500000036 0.0
2.87499999999992 1.082937500000035 0.0
3.124999999999946 0.9753125000000229 0.0
3.374999999999948 0.8733125000000204 0.0
3.624999999999972 0.77918750000001 0.0
3.874999999999963 0.6951875000000118 0.0
4.124999999999968 0.6235625000000082 0.0
4.394409538298571 0.5627485257243309 0.0
4.583333333333322 0.5316250000000015 0.0
4.666666666666668 0.5212499999999999 0.0
4.833333333333334 0.50725 0.0
4.916666666666667 0.503625 0.0
5.083333333333334 0.5012083333333335 0.0
5.166666666666666 0.502416666666667 0.0
5.333333333333334 0.5070833333333337 0.0
5.416666666666667 0.510541666666667 0.0
5.583333333333334 0.5194583333333336 0.0
5.666666666666666 0.5249166666666669 0.0
5.833333333333338 0.5375833333333339 0.0
5.916666666666661 0.544791666666666 0.0
6.105781577147724 0.5630541748119369 0.0
6.375 0.5930625000000003 0.0
6.624999999999988 0.6244374999999988 0.0
6.874999999999994 0.6584374999999991 0.0
7.125 0.6943124999999997 0.0
7.375 0.7313124999999996 0.0
7.624999999999994 0.7686874999999992 0.0
7.875 0.8056874999999999 0.0
8.125 0.8415624999999998 0.0
8.374999999999991 0.8755624999999989 0.0
8.624999999999995 0.9069374999999993 0.0
8.874999999999995 0.9349374999999991 0.0
9.125 0.9588125000000001 0.0
9.375 0.9778124999999998 0.0
9.625 0.9911874999999999 0.0
9.875 0.9981875000000007 0.0
0.0 1.799999999999167 0.0
0.0 1.6 0.0
0.0 1.400000000001387 0.0
0.0 1.200000000002774 0.0
0.0 1.000000000004117 0.0
0.0 0.8000000000033287 0.0
0.0 0.6000000000024965 0.0
0.0 0.4000000000016644 0.0
0.0 0.200000000000832 0.0
0.199999999999856 0.0 0.0
0.3999999999996677 0.0 0.0
0.5999999999994683 0.0 0.0
0.7999999999993286 0.0 0.0
0.9999999999991888 0.0 0.0
1.199999999999033 0.0 0.0
1.399999999998576 0.0 0.0
1.599999999997992 0.0 0.0
1.799999999997408 0.0 0.0
1.999999999996825 0.0 0.0
2.199999999996241 0.0 0.0
2.399999999995657 0.0 0.0
2.599999999995073 0.0 0.0
2.79999999999449 0.0 0.0
2.999999999993906 0.0 0.0
3.199999999993322 0.0 0.0
3.399999999992738 0.0 0.0
3.599999999992154 0.0 0.0
3.799999999991571 0.0 0.0
3.999999999991022 0.0 0.0
4.199999999991187 0.0 0.0
4.399999999991491 0.0 0.0
4.599999999991795 0.0 0.0
4.799999999992099 0.0 0.0
4.999999999992403 0.0 0.0
5.199999999992706 0.0 0.0
5.39999999999301 0.0 0.0
5.599999999993313 0.0 0.0
5.799999999993618 0.0 0.0
5.999999999993922 0.0 0.0
6.199999999994227 0.0 0.0
6.39999999999453 0.0 0.0
6.599999999994833 0.0 0.0
6.799999999995138 0.0 0.0
6.999999999995442 0.0 0.0
7.199999999995747 0.0 0.0
7.39999999999605 0.0 0.0
7.599999999996353 0.0 0.0
7.799999999996658 0.0 0.0
7.999999999996962 0.0 0.0
8.199999999997265 0.0 0.0
8.399999999997569 0.0 0.0
8.599999999997873 0.0 0.0
8.799999999998176 0.0 0.0
8.99999999999848 0.0 0.0
9.199999999998786 0.0 0.0
9.399999999999089 0.0 0.0
9.599999999999392 0.0 0.0
9.799999999999697 0.0 0.0
10.0 0.1999999999995579 0.0
10.0 0.3999999999989749 0.0
10.0 0.5999999999989468 0.0
10.0 0.7999999999994734 0.0
0.913963423524136 0.9126937851647636 0.0
1.629657910441747 0.8286436141773268 0.0
2.300136613917738 0.6369890708869279 0.0
0.5989085226155619 1.38125543468559 0.0
1.274155622640533 1.242773398230304 0.0
2.860215383945273 0.5217401976756945 0.0
9.469653920408135 0.4910067017840992 0.0
8.984679546317787 0.4696119782494839 0.0
8.499397693277212 0.4463630640980716 0.0
3.270918412356206 0.4522692359356972 0.0
1.223039611612243 0.5146439900227544 0.0
2.024812732135938 1.00818256045515 0.0
0.5365376864627701 0.5434316309416508 0.0
8.114834335444021 0.4602948767329583 0.0
7.742261962994204 0.4117304941858466 0.0
0.9443382341364558 1.456061359265878 0.0
1.665275621558886 1.201744468407863 0.0
1.89566112584099 0.4397284596316843 0.0
3.691409759982064 0.3560936332572802 0.0
7.368457390036411 0.3792926046732459 0.0
0.5071184951703254 0.9340893429149442 0.0
0.3822273842356539 1.647625881691675 0.0
5.916285335387544 0.2564903116750689 0.0
5.628860531758535 0.2582323053999509 0.0
5.380471017960128 0.2502349014663197 0.0
5.139244585769944 0.2549145445969738 0.0
2.686085237972266 0.8031095648160084 0.0
4.507599040026292 0.263176944655695 0.0
6.983755234374982 0.3380000000001097 0.0
9.720925955181613 0.6635813325201156 0.0
1.288006195687152 0.8759679848503046 0.0
9.20556379558699 0.6923669083350594 0.0
2.319913492084225 0.9512500928262699 0.0
8.73203612228155 0.6151508464420534 0.0
4.868679481352366 0.2526598053940744 0.0
4.10358044398202 0.3012437332986487 0.0
6.602422946953217 0.3126221952225479 0.0
2.534693527909069 0.3583319619586092 0.0
6.193332317503376 0.2894654215336858 0.0
0.8804088217382579 0.3735513844182569 0.0
0.7663303172393539 1.679065267574722 0.0
3.081211528283084 0.6968015573146217 0.0
1.241762689885858 1.521465072418641 0.0
1.573472750763779 0.3374689934575129 0.0
1.475107933015155 1.403918544935278 0.0
0.8212739503602162 1.195790902469637 0.0
4.681049549092561 0.3558177014380842 0.0
9.439519900118443 0.7366884444350511 0.0
2.201393787062887 0.3261463175998884 0.0
2.015369189818184 0.7109460688851087 0.0
8.32727069655695 0.6360373328685593 0.0
8.961488632119996 0.7119124617705204 0.0
9.22773266034565 0.3109430611770705 0.0
0.3000513553073295 1.178778127105867 0.0
1.91985473842554 1.233084801189704 0.0
8.749827252515535 0.3049638092131281 0.0
3.50551132590258 0.5576614504134195 0.0
3.040500962406976 0.290446660105673 0.0
9.72097519930939 0.3037986529514364 0.0
0.3073166349239687 0.3249300260882615 0.0
0.2948185331392187 0.7229775107826154 0.0
1.46029425821417 1.06552904833304 0.0
0.8085718129253527 0.673531272847494 0.0
7.913326191751847 0.5738936378911789 0.0
8.295349499871781 0.2556682497524391 0.0
4.31359646688283 0.3665214152100782 0.0
7.542842082022704 0.5249918217576657 0.0
1.058357552227335 1.116692590939024 0.0
2.214297272750292 1.159898327391242 0.0
2.901187336648686 0.8282146771898153 0.0
3.933498145061447 0.4325241689837319 0.0
7.956006969037984 0.2667411694088205 0.0
7.172393179434975 0.4835114022190097 0.0
1.440243631802057 0.6689433452646625 0.0
3.458541882144431 0.2581755850286561 0.0
5.791617360065465 0.3978542524532168 0.0
5.981529865241493 0.3900667299390458 0.0
1.083462543944253 0.7203994120564634 0.0
1.78518471978951 1.008552691762234 0.0
2.77360122246243 0.2689852172070111 0.0
2.565134389978369 0.9928826788184764 0.0
2.543046005790158 0.6034091352176242 0.0
3.293038780485421 0.6769811703257343 0.0
6.790787388653942 0.4353933509634578 0.0
1.140204059461831 0.2538227257007896 0.0
0.6242104065654487 0.2738473600765566 0.0
6.393430278703709 0.3766405270445946 0.0
8.533059390324546 0.6950580701614406 0.0
0.9961263693263854 1.612128843772703 0.0
1.697598586607002 0.5781950992180334 0.0
8.087930458724863 0.6517815437732153 0.0
0.2748906317360928 1.770749713716887 0.0
0.5785110002099415 1.757022387413085 0.0
5.550004842562332 0.3852675728674634 0.0
4.948161884155141 0.3480305424737933 0.0
1.741244734175577 1.381979611033466 0.0
5.312408927381063 0.3621256994047111 0.0
0.2492139438157334 1.453132031680879 0.0
7.597720022451821 0.2370268512906596 0.0
9.471021754366422 0.2472916581956264 0.0
7.714083843672875 0.600212897672991 0.0
4.520815862079482 0.3946753115680038 0.0
2.47356661122767 0.8007389356831706 0.0
7.325494311403363 0.528948935030723 0.0
7.147005275585743 0.2709670165999667 0.0
3.758046446289313 0.5474783841545341 0.0
3.893717059615281 0.1664960777568404 0.0
2.152835534199412 0.8614028741175742 0.0
8.995993312441625 0.1933410497113667 0.0
1.077676137392001 1.368204555688504 0.0
0.2429906229817933 0.9816066505657851 0.0
0.6261765586985547 1.180540007244081 0.0
9.81151801018651 0.816223424030724 0.0
0.6725442903064565 0.8425384371773644 0.0
1.74584086891446 0.2617492458514414 0.0
0.7667820686164357 1.440842670056678 0.0
8.539133693395232 0.1910926418035274 0.0
5.129145653242096 0.3632579123815574 0.0
6.816538849831732 0.2013284992826486 0.0
2.108503954619862 0.5359795950847274 0.0
6.933669557130528 0.4980836483776163 0.0
3.071406705674529 0.4919421055852253 0.0
2.001240035874449 0.2292738462614773 0.0
4.782473531509697 0.4061213127162872 0.0
0.5734126310178208 1.536352720889636 0.0
9.796714529589472 0.4898048068674991 0.0
5.678359041645315 0.373719883316694 0.0
5.427661572827738 0.3646059266294788 0.0
2.075214597532947 1.226969224366912 0.0
3.251521478555126 0.2637671977660283 0.0
2.722180837291864 0.9710783334409533 0.0
9.333262390342384 0.8479609887828539 0.0
1.367251332770493 0.2041553944563636 0.0
1.870721433742522 0.7905989208842599 0.0
1.387906762913351 1.555741687747287 0.0
9.559918612869 0.8444052974080497 0.0
9.286795039366257 0.4698254290795815 0.0
[...]
POINT_DATA 600

VECTORS Velocity float
0.0000000000000000 0.0000000000000000 0.0
0.0000000000000000 0.0000000000000000 0.0
0.0000000000000000 0.0000000000000000 0.0
0.0000000000000000 0.0000000000000000 0.0
0.0000000000000000 0.0000000000000000 0.0
0.0000000000000000 0.0000000000000000 0.0
0.0000000000000000 0.0000000000000000 0.0
0.0000000000000000 0.0000000000000000 0.0
0.0000000000000000 0.0000000000000000 0.0
0.0000000000000000 0.0000000000000000 0.0
0.0000000000000000 0.0000000000000000 0.0
0.0000000000000000 0.0000000000000000 0.0
0.0000000000000000 0.0000000000000000 0.0
0.0000000000000000 0.0000000000000000 0.0
0.0000000000000000 0.0000000000000000 0.0
0.0000000000000000 0.0000000000000000 0.0
0.0000000000000000 0.0000000000000000 0.0
0.0000000000000000 0.0000000000000000 0.0
0.0000000000000000 0.0000000000000000 0.0
0.0000000000000000 0.0000000000000000 0.0
0.0000000000000000 0.0000000000000000 0.0
0.0000000000000000 0.0000000000000000 0.0
0.0000000000000000 0.0000000000000000 0.0
0.0000000000000000 0.0000000000000000 0.0
0.0000000000000000 0.0000000000000000 0.0
0.0000000000000000 0.0000000000000000 0.0
0.0000000000000000 0.0000000000000000 0.0
0.0000000000000000 0.0000000000000000 0.0
0.0000000000000000 0.0000000000000000 0.0
0.0000000000000000 0.0000000000000000 0.0
0.0000000000000000 0.0000000000000000 0.0
0.0000000000000000 0.0000000000000000 0.0
0.0000000000000000 0.0000000000000000 0.0
0.0000000000000000 0.0000000000000000 0.0
0.0000000000000000 0.0000000000000000 0.0
0.0000000000000000 0.0000000000000000 0.0
0.0000000000000000 0.0000000000000000 0.0
0.0000000000000000 0.0000000000000000 0.0
0.0000000000000000 0.0000000000000000 0.0
0.0000000000000000 0.0000000000000000 0.0
0.0000000000000000 0.0000000000000000 0.0
0.0000000000000000 0.0000000000000000 0.0
0.8247667251362296 -0.1310941756946872 0.0
0.0000000000000000 0.0000000000000000 0.0
0.0000000000000000 0.0000000000000000 0.0
0.0000000000000000 0.0000000000000000 0.0
0.0000000000000000 0.0000000000000000 0.0
0.0000000000000000 0.0000000000000000 0.0
0.0000000000000000 0.0000000000000000 0.0
0.0000000000000000 0.0000000000000000 0.0
0.0000000000000000 0.0000000000000000 0.0
0.0000000000000000 0.0000000000000000 0.0
0.0000000000000000 0.0000000000000000 0.0
0.0000000000000000 0.0000000000000000 0.0
0.0000000000000000 0.0000000000000000 0.0
0.0000000000000000 0.0000000000000000 0.0
0.0000000000000000 0.0000000000000000 0.0
0.0000000000000000 0.0000000000000000 0.0
0.0000000000000000 0.0000000000000000 0.0
0.0000000000000000 0.0000000000000000 0.0
0.0000000000000000 0.0000000000000000 0.0
0.0000000000000000 0.0000000000000000 0.0
0.0000000000000000 0.0000000000000000 0.0
0.0000000000000000 0.0000000000000000 0.0
0.0000000000000000 0.0000000000000000 0.0
0.0000000000000000 0.0000000000000000 0.0
0.0000000000000000 0.0000000000000000 0.0
0.0000000000000000 0.0000000000000000 0.0
0.0000000000000000 0.0000000000000000 0.0
0.0000000000000000 0.0000000000000000 0.0
0.0000000000000000 0.0000000000000000 0.0
0.0000000000000000 0.0000000000000000 0.0
0.0000000000000000 0.0000000000000000 0.0
0.0000000000000000 0.0000000000000000 0.0
0.0000000000000000 0.0000000000000000 0.0
0.0000000000000000 0.0000000000000000 0.0
0.0000000000000000 0.0000000000000000 0.0
0.0000000000000000 0.0000000000000000 0.0
0.0000000000000000 0.0000000000000000 0.0
0.0000000000000000 0.0000000000000000 0.0
0.0000000000000000 0.0000000000000000 0.0
0.0000000000000000 0.0000000000000000 0.0
0.0000000000000000 0.0000000000000000 0.0
0.0000000000000000 0.0000000000000000 0.0
0.0000000000000000 0.0000000000000000 0.0
0.0000000000000000 0.0000000000000000 0.0
0.0000000000000000 0.0000000000000000 0.0
0.0000000000000000 0.0000000000000000 0.0
0.0000000000000000 0.0000000000000000 0.0
1.0000000000000000 0.0000000000000000 0.0
1.0000000000000000 0.0000000000000000 0.0
1.0000000000000000 0.0000000000000000 0.0
1.0000000000000000 0.0000000000000000 0.0
1.0000000000000000 0.0000000000000000 0.0
1.0000000000000000 0.0000000000000000 0.0
1.0000000000000000 0.0000000000000000 0.0
1.0000000000000000 0.0000000000000000 0.0
1.0000000000000000 0.0000000000000000 0.0
0.0000000000000000 0.0000000000000000 0.0
0.0000000000000000 0.0000000000000000 0.0
0.0000000000000000 0.0000000000000000 0.0
0.0000000000000000 0.0000000000000000 0.0
0.0000000000000000 0.0000000000000000 0.0
0.0000000000000000 0.0000000000000000 0.0
0.0000000000000000 0.0000000000000000 0.0
0.0000000000000000 0.0000000000000000 0.0
0.0000000000000000 0.0000000000000000 0.0
0.0000000000000000 0.0000000000000000 0.0
0.0000000000000000 0.0000000000000000 0.0
0.0000000000000000 0.0000000000000000 0.0
0.0000000000000000 0.0000000000000000 0.0
0.0000000000000000 0.0000000000000000 0.0
0.0000000000000000 0.0000000000000000 0.0
0.0000000000000000 0.0000000000000000 0.0
0.0000000000000000 0.0000000000000000 0.0
0.0000000000000000 0.0000000000000000 0.0
0.0000000000000000 0.0000000000000000 0.0
0.0000000000000000 0.0000000000000000 0.0
0.0000000000000000 0.0000000000000000 0.0
0.0000000000000000 0.0000000000000000 0.0
0.0000000000000000 0.0000000000000000 0.0
0.0000000000000000 0.0000000000000000 0.0
0.0000000000000000 0.0000000000000000 0.0
0.0000000000000000 0.0000000000000000 0.0
0.0000000000000000 0.0000000000000000 0.0
0.0000000000000000 0.0000000000000000 0.0
0.0000000000000000 0.0000000000000000 0.0
0.0000000000000000 0.0000000000000000 0.0
0.0000000000000000 0.0000000000000000 0.0
0.0000000000000000 0.0000000000000000 0.0
0.0000000000000000 0.0000000000000000 0.0
0.0000000000000000 0.0000000000000000 0.0
0.0000000000000000 0.0000000000000000 0.0
0.0000000000000000 0.0000000000000000 0.0
0.0000000000000000 0.0000000000000000 0.0
0.0000000000000000 0.0000000000000000 0.0
0.0000000000000000 0.0000000000000000 0.0
0.0000000000000000 0.0000000000000000 0.0
0.0000000000000000 0.0000000000000000 0.0
0.0000000000000000 0.0000000000000000 0.0
0.0000000000000000 0.0000000000000000 0.0
0.0000000000000000 0.0000000000000000 0.0
0.0000000000000000 0.0000000000000000 0.0
0.0000000000000000 0.0000000000000000 0.0
0.0000000000000000 0.0000000000000000 0.0
0.0000000000000000 0.0000000000000000 0.0
0.0000000000000000 0.0000000000000000 0.0
1.0710740122259932 -0.4604301752328596 0.0
0.9672694138729434 -0.1924675970269742 0.0
0.9835311810029136 -0.0279885603249603 0.0
1.0705549136036536 0.3831057332049997 0.0
1.3060876721581749 0.0029457608592109 0.0
1.3814915644330452 -0.0752775822637097 0.0
1.4211250224744854 -0.1630051794659091 0.0
1.2281210640238449 -0.0922487805059277 0.0
1.3238111505759496 -0.0834747947896309 0.0
1.5092181094204764 -0.1103763307620534 0.0
1.5753431908036248 -0.0276153422566713 0.0
1.5244300304004890 0.0186191075359538 0.0
1.5803524449314330 0.0936906442324951 0.0
1.5064261322467376 -0.1200212852587412 0.0
1.2095939279293579 -0.0000166738041642 0.0
1.3290811473263344 -0.0996035088243348 0.0
1.2300789554410472 0.2075739040625274 0.0
1.5805672384616498 0.0705232550173971 0.0
1.5594387328794486 0.0118926214936838 0.0
1.1827391616698189 -0.0545782803162833 0.0
1.2732352185326359 -0.0348445655703984 0.0
1.1729633423872092 -0.0435496043289840 0.0
1.5281978975479238 -0.0555647383131164 0.0
1.5806809158624668 0.0531284422515738 0.0
1.1804099064716254 0.0851576891770131 0.0
1.1579366696855300 -0.2255419877738141 0.0
1.4967310152430249 0.0154683599665096 0.0
1.4970174864964805 -0.0181358000633354 0.0
1.5264156808986629 0.0353856252830045 0.0
1.5483853061665831 0.0133399750526313 0.0
1.3239897985703710 -0.1223222284917214 0.0
1.4877114980182726 0.0089954415076156 0.0
1.6542622635072430 0.0251740719311735 0.0
1.3540590466768501 0.1296378871009839 0.0
1.3676176008602396 -0.0399596596497405 0.0
1.3781106170222248 -0.0470904601157529 0.0
1.3215841048049204 -0.1456020359683355 0.0
1.5038476681420814 0.0927833852524103 0.0
1.5126754845923189 0.0018734355403366 0.0
1.6251863471277914 -0.1055563473233439 0.0
1.6830255915412338 -0.0386119908948030 0.0
1.2117166872213874 -0.0853847732012986 0.0
1.5895331518598252 -0.0195997062634941 0.0
1.0216702958563344 0.0516617921951477 0.0
0.9107323226197670 0.0250766506736285 0.0
1.3779966311058331 -0.0549904030488437 0.0
0.9321796283004078 0.0127920535198128 0.0
0.9141027866263043 -0.0497699768039675 0.0
1.0370605148780434 0.0314245403906078 0.0
1.2841163214715388 -0.0435029264185962 0.0
1.7993456686685578 -0.1356088363730537 0.0
1.2802232479085012 0.0003404572604448 0.0
1.0081332020985057 -0.0664056477260035 0.0
1.3967001903173535 -0.0924879975907215 0.0
1.3655406866299886 0.0393984125630289 0.0
1.3248383377465109 0.0026621349390092 0.0
1.2242308079339419 -0.0212017398559150 0.0
1.0753771736875266 -0.0516077720615316 0.0
1.1004336989470536 0.0073700551698579 0.0
1.2522407842092687 0.0219556708319226 0.0
1.4483725440485959 -0.0626021834443221 0.0
1.2297801738682579 -0.0274664154361917 0.0
1.2073451335203891 -0.2040187699038416 0.0
1.1332517078473254 0.3275723666791847 0.0
1.0946922595024680 0.1868247681961400 0.0
1.3855698854293981 -0.0663777388290837 0.0
1.2794591745566215 0.0780797063377942 0.0
1.4011766053955039 0.0552409282242094 0.0
1.2316550344854345 0.0207568171435425 0.0
1.7382353486453255 0.0677037882675536 0.0
1.4811328539210546 -0.0082040734643700 0.0
1.3333570106363255 -0.0513931056558003 0.0
0.9494992257191994 -0.0024122391758563 0.0
1.1091126833387450 -0.0191339380019427 0.0
1.6043918676483968 -0.1328544100059000 0.0
1.3095918408681295 0.0496228270359130 0.0
1.4466477195969694 0.0706722872264558 0.0
1.3449183504250970 -0.0435608151527941 0.0
1.2434446838591728 -0.0431580013879701 0.0
1.5360008986406311 -0.0420961421515357 0.0
1.6078776744223375 0.0408547130165110 0.0
1.3304939442553931 0.0126783605265294 0.0
1.3732165870780340 -0.0831353183221556 0.0
1.0874119238358462 -0.0864562348721643 0.0
0.9970340446761475 -0.0145383448604354 0.0
1.4774763237688358 -0.1633403767860045 0.0
1.2379160076698914 -0.0997076005790615 0.0
1.5840569665703659 0.0134033556688330 0.0
0.6418586339330357 0.0272630933789448 0.0
0.8985130843895464 0.0915582681535308 0.0
1.6626081363663290 0.0135513971589623 0.0
1.2466824507855732 -0.0066850231019457 0.0
0.9182449691969696 0.0141105245937227 0.0
1.2981593703300269 -0.0853467720706028 0.0
1.1953126267391050 0.0056068297424514 0.0
1.1186719728587029 -0.2721170699844148 0.0
0.8562134200736667 0.0371234786797342 0.0
1.5923087500223385 0.0110981324366483 0.0
1.6630924293795388 -0.0096933138117585 0.0
0.8823737498473256 0.0854586197706825 0.0
1.6060013399915523 0.0559796031053371 0.0
1.0917927868339445 -0.1888067537306488 0.0
1.2234791090368051 0.0328915525228657 0.0
1.1078367346723927 -0.0398293789462597 0.0
1.2315343714210882 0.0159537006468637 0.0
1.6688863508383809 -0.0222639044986329 0.0
1.4170205859610849 -0.2067062883157128 0.0
1.4457320487982845 0.0444172049873323 0.0
1.4491175392507449 0.0879578098245311 0.0
1.3465084672471033 -0.0510472983163027 0.0
0.7463015223527243 -0.0904115351933598 0.0
1.3947388668582168 -0.1448821590785317 0.0
0.6627068535521080 -0.0061770760707813 0.0
1.2522804286043869 -0.0689972679521648 0.0
1.0464811477650147 0.0237517132939863 0.0
1.2293834646445883 -0.0193337787358063 0.0
1.1687718563009077 0.2304897313718253 0.0
1.2504589042328236 0.0851795950902707 0.0
0.7618359630895665 0.0070514208093706 0.0
1.2295999300645464 -0.0735705768087806 0.0
0.7096882311541708 0.0034645148331552 0.0
1.6540062664487025 0.0020052126566873 0.0
1.0155404820649099 0.0772308836141904 0.0
1.3283307676024840 -0.1128642715326449 0.0
1.1376180738073156 0.0012643320716143 0.0
1.4769422563684040 -0.1405888977758321 0.0
0.5911317638061450 -0.0439031836377840 0.0
1.1793904326510523 -0.0783290947565369 0.0
1.2069984828347771 -0.1013095976559777 0.0
1.2824645833000017 -0.0999517125207362 0.0
1.6347191545855204 -0.0139672362891670 0.0
1.6030212350811597 0.0496988986618162 0.0
0.9327705864035347 0.0618733287436265 0.0
1.2422513604696872 -0.0437183888541951 0.0
0.7603096909560220 0.0996175359598823 0.0
0.5980839585260702 -0.0029400940225561 0.0
0.4755265137057034 0.0248172767820852 0.0
1.3785974764029836 -0.0850430931062959 0.0
0.6046531450400208 0.1617141209843734 0.0
0.7048212116135669 -0.0062726449250972 0.0
1.5491103351840896 0.0229141166556365 0.0
1.2968260058729437 -0.0569544434076198 0.0
1.2104050635515380 -0.0389145138761987 0.0
1.5646536712451604 0.0655864896874732 0.0
1.3643704789706839 -0.0650309419728587 0.0
1.5709114509593092 0.0295300711794445 0.0
1.1818767610638297 0.0563779928318164 0.0
1.1196659276390697 -0.2403940126626285 0.0
1.2018290268700140 0.1586975961741910 0.0
1.1088837146878603 0.2279198477978214 0.0
1.0737406269710414 -0.0464262595823274 0.0
1.1845434109423492 0.0255629121225957 0.0
0.9319795590936675 0.0418896985817894 0.0
0.6149262834206574 0.1429286213588785 0.0
0.9917163254456938 -0.0117203092922821 0.0
1.3431963935472526 -0.0352133862242041 0.0
0.7668398773407319 0.0676805901447331 0.0
1.2172283268796877 0.0461920954196353 0.0
1.3854579268521623 -0.0579459357070033 0.0
0.9113450763269366 -0.0156806508262431 0.0
1.2625893611255816 0.0321217892211516 0.0
1.5207052735378137 0.0493783697641944 0.0
1.1969506082849231 -0.1601996927119989 0.0
1.3034670933720456 -0.0992792450222015 0.0
0.5617081193980862 0.1398700776270735 0.0
0.5613931991395033 0.1117477147235010 0.0
0.8405435828328697 -0.0132055303111375 0.0
1.4609228617902728 -0.0836126220839915 0.0
1.3863903657234167 -0.0721885907361737 0.0
0.5897087318571047 0.1606011352766553 0.0
0.7108036929021252 -0.0528541087240261 0.0
1.1208904073419828 0.0206604196029273 0.0
1.4428122919032209 -0.1007811033832230 0.0
0.9839802270787669 -0.0126775005299855 0.0
1.2635030022856892 0.0110088957887839 0.0
1.3496563279299985 -0.0735116346862895 0.0
0.9636879564060138 0.0082955795988260 0.0
0.8735859672060622 0.0708086940462238 0.0
1.3263130919203368 -0.0006943941346928 0.0
0.7718157893828970 -0.0264726251936391 0.0
1.5625217195487602 -0.0255758308852777 0.0
0.7678047066415769 0.0217548664674806 0.0
0.7743877572908361 -0.0292957880817621 0.0
1.2838225174707323 -0.0735637398523980 0.0
1.3475366220874880 -0.0123569343669621 0.0
0.9920966135344262 0.0103405946748533 0.0
0.6324511729039708 0.1824147275575838 0.0
0.9113276605870984 -0.0045732676052265 0.0
1.1800001649872456 -0.0451511286831657 0.0
0.8220895490477529 0.0903228265782363 0.0
1.1858943546920302 0.1277649351017792 0.0
1.1214358528308006 -0.0307155735325934 0.0
0.6815901115424071 0.0183286703680617 0.0
1.5135898382047295 -0.0200658805193209 0.0
0.9064086264129738 -0.0118131179558592 0.0
1.5372869816020804 -0.0240270228189430 0.0
0.4627123920957086 -0.0368026170776047 0.0
1.4205054740143535 -0.1622112838108215 0.0
1.5865095159275768 -0.0128488841047540 0.0
0.5881281579150626 0.1144856697629333 0.0
0.7806150401213334 -0.0247135319122341 0.0
1.5801503664503069 0.0688642141208989 0.0
0.9377478830931911 0.0885029790105373 0.0
1.5582761516138841 0.0554926032050877 0.0
1.0355760758143659 -0.0255245381358816 0.0
0.8023155516986693 -0.0586615388842244 0.0
0.6902170402989216 -0.0290129973230359 0.0
1.0184951394023567 -0.0257036083420649 0.0
1.0017259690450409 0.0296938668902275 0.0
1.4563371727630670 0.0134226696630890 0.0
0.5623683096699316 0.0369352897719178 0.0
0.8802072897022345 -0.0611294856755022 0.0
0.8514156076391004 0.0512580955936916 0.0
1.4234684719276045 0.0778736384421685 0.0
0.8031077304938244 -0.1985011048473245 0.0
0.8292171518862876 -0.0262437289910551 0.0
0.5275358835516247 -0.0482939384151558 0.0
1.0851100742192665 0.0117838412513740 0.0
0.7262450809500274 0.1887976352102327 0.0
0.9018009081018981 0.0434809242306562 0.0
1.2644497834903314 -0.1255976193221233 0.0
0.7659505435865004 -0.0181110394932540 0.0
0.9017871902259585 -0.0018579090669073 0.0
1.0380023535835354 -0.0197259614699098 0.0
0.7921184678175935 -0.0300247402733249 0.0
0.7680835648045140 -0.0451565948399673 0.0
1.4846851008116864 0.0267302180776257 0.0
0.8014157814510057 -0.0319396443907161 0.0
1.0378374552881204 -0.0696875340454302 0.0
0.8396342651626090 0.0547479625280588 0.0
1.3008949739834577 -0.0464562146610260 0.0
0.6389416616649710 -0.0171996064142468 0.0
0.4273028375092096 0.0070237089262573 0.0
1.1720086170579669 -0.0760608972419398 0.0
0.8367291332156158 0.1015460449688624 0.0
0.7948342724939649 -0.0165802313439032 0.0
0.9590497773712069 0.0565405897043912 0.0
1.2972473389210606 -0.0258069020025529 0.0
0.6584222890595450 -0.0202504433749856 0.0
1.2129550834954983 0.1865421433396537 0.0
1.4952115154137573 0.0045768223293866 0.0
0.7109221852225697 -0.0125272505042229 0.0
1.1421175776150190 0.0045469510201875 0.0
1.2573147402418332 -0.0555258338154465 0.0
1.1184803892219981 -0.0471265651087430 0.0
1.3851510938344700 -0.1147298379869965 0.0
0.4926387229333860 0.2035584490165653 0.0
1.7286776966868633 0.0211687100482838 0.0
1.3101985877849056 0.0267717763237072 0.0
0.5647382619339492 0.0508735386215500 0.0
1.4202861577805821 -0.1352187067987048 0.0
1.4996477343592465 -0.0917702162629288 0.0
0.6432144693697188 -0.0067313804342922 0.0
1.0236330981711570 -0.0090740818973976 0.0
0.6726735292478160 -0.0389307738553592 0.0
0.9514273983612752 -0.0774036243754009 0.0
0.7844505813527440 -0.0533221334882032 0.0
0.4225329378796438 0.2081300296920813 0.0
1.1373315869108531 0.2251787687966580 0.0
1.5952120733069197 0.0104452371367411 0.0
0.5903586823517013 0.2150311612602859 0.0
1.5755003172976136 -0.0608747351424271 0.0
1.7456280502268005 0.0973373885134812 0.0
0.5608903406535543 0.2043800833534435 0.0
1.4815047168728293 0.0446349549161879 0.0
1.4099457541453531 -0.1403916157272679 0.0
0.9265571253119005 0.2484835232280484 0.0
1.2919002602429677 -0.0195036307103875 0.0
1.3203087885674227 0.0198112438866584 0.0
0.7802459090853867 0.0899025027330616 0.0
1.3392123845295154 -0.1114720408582355 0.0
0.7009100347156056 -0.0565145080023180 0.0
0.6077419250694033 0.1890214981904708 0.0
0.4270421209646044 0.0231044104366927 0.0
1.2214502824062319 -0.0278344685873460 0.0
0.8857519667139715 -0.2746042788221801 0.0
1.4156765995271976 0.0999767411167825 0.0
1.2956534228921794 -0.1044564384343334 0.0
0.5629711210634736 -0.0114826978003792 0.0
0.5847154804812810 0.0481368836388708 0.0
0.7002588132588056 0.0179327966065842 0.0
1.1377666873655683 0.0106145983681618 0.0
1.2024743000921543 0.2807538602456724 0.0
0.5685448316578917 -0.0341872084533986 0.0
1.1491472678154337 -0.0532121018284829 0.0
0.5938359189341061 0.0409510736881084 0.0
1.5700622984544295 0.0399244360775904 0.0
0.4696772163248736 0.2437198389500494 0.0
0.7459857715305294 -0.1211547841422781 0.0
1.5394407358276545 -0.0446792603131201 0.0
1.2557636320562344 0.0364295069720517 0.0
1.5047787388488147 -0.1344727005824319 0.0
0.6846723108727342 0.0059315732349177 0.0
0.8709844912583938 -0.0340824858801896 0.0
1.4549511874052297 -0.1036197830210457 0.0
1.3635388815543024 -0.0729369761548362 0.0
1.0224774545912096 0.0625876661451336 0.0
1.4474529488779173 0.0368328340340260 0.0
1.3187485978236018 -0.0725331115410067 0.0
1.2603114779608844 0.1348680288018506 0.0
0.8844588703804585 -0.0076705782772176 0.0
0.7432798335497945 -0.0213214757521672 0.0
0.6750592020994122 -0.0462311031562895 0.0
1.3155335360420397 -0.0711623311031080 0.0
1.3129108813080073 -0.0548147641368780 0.0
1.1261816179269943 0.1135796174592591 0.0
0.3557660103986444 0.0298846194334877 0.0
1.4362247550504093 -0.0946009548404500 0.0
0.3170172639813655 0.1118405720423423 0.0
0.6907424550129352 0.1211272018018211 0.0
1.0922334194008243 0.0257885925111416 0.0
0.5390434806649508 -0.1149488762922087 0.0
1.1467969988480260 -0.3136002210993451 0.0
1.3634528941313662 -0.0710026268904111 0.0
1.6094091464260341 -0.0183259958116476 0.0
0.7310567914518477 0.1117865557814045 0.0
1.5223115124905111 -0.0612906238548935 0.0
0.9291049410550601 -0.0330920691309074 0.0
1.3746634994104732 -0.0594818807581760 0.0
0.9315501232309709 -0.0257240552205180 0.0
0.5084066110849325 0.2017617524359723 0.0
0.9088552538457779 -0.0548540657917676 0.0
1.0271569847309929 -0.0641738933324488 0.0