# vtk DataFile Version 3.0
LucasCarvalhoTCC Results
ASCII

DATASET POLYDATA
FIELD FieldData 1
TIME 1 1 double
2.5

POINTS 600 float
0.0 2.0 0.0
0.25 1.989125 0.0
0.5 1.958 0.0
0.75 1.908875 0.0
1.0 1.844 0.0
1.25 1.765625 0.0
1.5 1.676 0.0
1.75 1.577375 0.0
2.0 1.472 0.0
2.25 1.362125 0.0
2.5 1.25 0.0
2.75 1.137875 0.0
3.0 1.028 0.0
3.25 0.922625 0.0
3.5 0.8240000000000001 0.0
3.75 0.734375 0.0
4.0 0.6560000000000001 0.0
4.25 0.5911249999999999 0.0
4.5 0.542 0.0
4.75 0.510875 0.0
5.0 0.5 0.0
5.25 0.5036250000000004 0.0
5.5 0.5140000000000002 0.0
5.75 0.5303750000000003 0.0
6.0 0.5519999999999996 0.0
6.25 0.578125 0.0
6.5 0.6080000000000005 0.0
6.75 0.6408749999999999 0.0
7.0 0.6760000000000002 0.0
7.25 0.7126249999999992 0.0
7.5 0.75 0.0
7.75 0.7873750000000004 0.0
8.0 0.8239999999999994 0.0
8.25 0.8591250000000001 0.0
8.5 0.8919999999999999 0.0
8.75 0.921875 0.0
9.0 0.9479999999999991 0.0
9.25 0.9696250000000011 0.0
9.5 0.9859999999999984 0.0
9.75 0.9963750000000013 0.0
10.0 1.0 0.0
0.0 0.0 0.0
10.0 0.0 0.0
0.124999999999674 1.994562500000014 0.0
0.3749999999999947 1.973562500000001 0.0
0.6249999999999918 1.933437500000002 0.0
0.874999999999979 1.876437500000006 0.0
1.124999999999963 1.804812500000012 0.0
1.374999999999944 1.72081250000002 0.0
1.624999999999985 1.626687500000006 0.0
1.874999999999953 1.52468750000002 0.0
2.124999999999936 1.417062500000028 0.0
2.374999999999952 1.306062500000022 0.0
2.624999999999919 1.193937500000036 0.0
2.87499999999992 1.082937500000035 0.0
3.124999999999946 0.9753125000000229 0.0
3.374999999999948 0.8733125000000204 0.0
3.624999999999972 0.77918750000001 0.0
3.874999999999963 0.6951875000000118 0.0
4.124999999999968 0.6235625000000082 0.0
4.394409538298571 0.5627485257243309 0.0
4.583333333333322 0.5316250000000015 0.0
4.666666666666668 0.5212499999999999 0.0
4.833333333333334 0.50725 0.0
4.916666666666667 0.503625 0.0
5.083333333333334 0.5012083333333335 0.0
5.166666666666666 0.502416666666667 0.0
5.333333333333334 0.5070833333333337 0.0
5.416666666666667 0.510541666666667 0.0
5.583333333333334 0.5194583333333336 0.0
5.666666666666666 0.5249166666666669 0.0
5.833333333333338 0.5375833333333339 0.0
5.916666666666661 0.544791666666666 0.0
6.105781577147724 0.5630541748119369 0.0
6.375 0.5930625000000003 0.0
6.624999999999988 0.6244374999999988 0.0
6.874999999999994 0.6584374999999991 0.0
7.125 0.6943124999999997 0.0
7.375 0.7313124999999996 0.0
7.624999999999994 0.7686874999999992 0.0
7.875 0.8056874999999999 0.0
8.125 0.8415624999999998 0.0
8.374999999999991 0.8755624999999989 0.0
8.624999999999995 0.9069374999999993 0.0
8.874999999999995 0.9349374999999991 0.0
9.125 0.9588125000000001 0.0
9.375 0.9778124999999998 0.0
9.625 0.9911874999999999 0.0
9.875 0.9981875000000007 0.0
0.0 1.799999999999167 0.0
0.0 1.6 0.0
0.0 1.400000000001387 0.0
0.0 1.200000000002774 0.0
0.0 1.000000000004117 0.0
0.0 0.8000000000033287 0.0
0.0 0.6000000000024965 0.0
0.0 0.4000000000016644 0.0
0.0 0.200000000000832 0.0
0.199999999999856 0.0 0.0
0.3999999999996677 0.0 0.0
0.5999999999994683 0.0 0.0
0.7999999999993286 0.0 0.0
0.9999999999991888 0.0 0.0
1.199999999999033 0.0 0.0
1.399999999998576 0.0 0.0
1.599999999997992 0.0 0.0
1.799999999997408 0.0 0.0
1.999999999996825 0.0 0.0
2.199999999996241 0.0 0.0
2.399999999995657 0.0 0.0
2.599999999995073 0.0 0.0
2.79999999999449 0.0 0.0
2.999999999993906 0.0 0.0
3.199999999993322 0.0 0.0
3.399999999992738 0.0 0.0
3.599999999992154 0.0 0.0
3.799999999991571 0.0 0.0
3.999999999991022 0.0 0.0
4.199999999991187 0.0 0.0
4.399999999991491 0.0 0.0
4.599999999991795 0.0 0.0
4.799999999992099 0.0 0.0
4.999999999992403 0.0 0.0
5.199999999992706 0.0 0.0
5.39999999999301 0.0 0.0
5.599999999993313 0.0 0.0
5.799999999993618 0.0 0.0
5.999999999993922 0.0 0.0
6.199999999994227 0.0 0.0
6.39999999999453 0.0 0.0
6.599999999994833 0.0 0.0
6.799999999995138 0.0 0.0
6.999999999995442 0.0 0.0
7.199999999995747 0.0 0.0
7.39999999999605 0.0 0.0
7.599999999996353 0.0 0.0
7.799999999996658 0.0 0.0
7.999999999996962 0.0 0.0
8.199999999997265 0.0 0.0
8.399999999997569 0.0 0.0
8.599999999997873 0.0 0.0
8.799999999998176 0.0 0.0
8.99999999999848 0.0 0.0
9.199999999998786 0.0 0.0
9.399999999999089 0.0 0.0
9.599999999999392 0.0 0.0
9.799999999999697 0.0 0.0
10.0 0.1999999999995579 0.0
10.0 0.3999999999989749 0.0
10.0 0.5999999999989468 0.0
10.0 0.7999999999994734 0.0
0.913963423524136 0.9126937851647636 0.0
1.629657910441747 0.8286436141773268 0.0
2.300136613917738 0.6369890708869279 0.0
0.5989085226155619 1.38125543468559 0.0
1.274155622640533 1.242773398230304 0.0
2.860215383945273 0.5217401976756945 0.0
9.469653920408135 0.4910067017840992 0.0
8.984679546317787 0.4696119782494839 0.0
8.499397693277212 0.4463630640980716 0.0
3.270918412356206 0.4522692359356972 0.0
1.223039611612243 0.5146439900227544 0.0
2.024812732135938 1.00818256045515 0.0
0.5365376864627701 0.5434316309416508 0.0
8.114834335444021 0.4602948767329583 0.0
7.742261962994204 0.4117304941858466 0.0
0.9443382341364558 1.456061359265878 0.0
1.665275621558886 1.201744468407863 0.0
1.89566112584099 0.4397284596316843 0.0
3.691409759982064 0.3560936332572802 0.0
7.368457390036411 0.3792926046732459 0.0
0.5071184951703254 0.9340893429149442 0.0
0.3822273842356539 1.647625881691675 0.0
5.916285335387544 0.2564903116750689 0.0
5.628860531758535 0.2582323053999509 0.0
5.380471017960128 0.2502349014663197 0.0
5.139244585769944 0.2549145445969738 0.0
2.686085237972266 0.8031095648160084 0.0
4.507599040026292 0.263176944655695 0.0
6.983755234374982 0.3380000000001097 0.0
9.720925955181613 0.6635813325201156 0.0
1.288006195687152 0.8759679848503046 0.0
9.20556379558699 0.6923669083350594 0.0
2.319913492084225 0.9512500928262699 0.0
8.73203612228155 0.6151508464420534 0.0
4.868679481352366 0.2526598053940744 0.0
4.10358044398202 0.3012437332986487 0.0
6.602422946953217 0.3126221952225479 0.0
2.534693527909069 0.3583319619586092 0.0
6.193332317503376 0.2894654215336858 0.0
0.8804088217382579 0.3735513844182569 0.0
0.7663303172393539 1.679065267574722 0.0
3.081211528283084 0.6968015573146217 0.0
1.241762689885858 1.521465072418641 0.0
1.573472750763779 0.3374689934575129 0.0
1.475107933015155 1.403918544935278 0.0
0.8212739503602162 1.195790902469637 0.0
4.681049549092561 0.3558177014380842 0.0
9.439519900118443 0.7366884444350511 0.0
2.201393787062887 0.3261463175998884 0.0
2.015369189818184 0.7109460688851087 0.0
8.32727069655695 0.6360373328685593 0.0
8.961488632119996 0.7119124617705204 0.0
9.22773266034565 0.3109430611770705 0.0
0.3000513553073295 1.178778127105867 0.0
1.91985473842554 1.233084801189704 0.0
8.749827252515535 0.3049638092131281 0.0
3.50551132590258 0.5576614504134195 0.0
3.040500962406976 0.290446660105673 0.0
9.72097519930939 0.3037986529514364 0.0
0.3073166349239687 0.3249300260882615 0.0
0.2948185331392187 0.7229775107826154 0.0
1.46029425821417 1.06552904833304 0.0
0.8085718129253527 0.673531272847494 0.0
7.913326191751847 0.5738936378911789 0.0
8.295349499871781 0.2556682497524391 0.0
4.31359646688283 0.3665214152100782 0.0
7.542842082022704 0.5249918217576657 0.0
1.058357552227335 1.116692590939024 0.0
2.214297272750292 1.159898327391242 0.0
2.901187336648686 0.8282146771898153 0.0
3.933498145061447 0.4325241689837319 0.0
7.956006969037984 0.2667411694088205 0.0
7.172393179434975 0.4835114022190097 0.0
1.440243631802057 0.6689433452646625 0.0
3.458541882144431 0.2581755850286561 0.0
5.791617360065465 0.3978542524532168 0.0
5.981529865241493 0.3900667299390458 0.0
1.083462543944253 0.7203994120564634 0.0
1.78518471978951 1.008552691762234 0.0
2.77360122246243 0.2689852172070111 0.0
2.565134389978369 0.9928826788184764 0.0
2.543046005790158 0.6034091352176242 0.0
3.293038780485421 0.6769811703257343 0.0
6.790787388653942 0.4353933509634578 0.0
1.140204059461831 0.2538227257007896 0.0
0.6242104065654487 0.2738473600765566 0.0
6.393430278703709 0.3766405270445946 0.0
8.533059390324546 0.6950580701614406 0.0
0.9961263693263854 1.612128843772703 0.0
1.697598586607002 0.5781950992180334 0.0
8.087930458724863 0.6517815437732153 0.0
0.2748906317360928 1.770749713716887 0.0
0.5785110002099415 1.757022387413085 0.0
5.550004842562332 0.3852675728674634 0.0
4.948161884155141 0.3480305424737933 0.0
1.741244734175577 1.381979611033466 0.0
5.312408927381063 0.3621256994047111 0.0
0.2492139438157334 1.453132031680879 0.0
7.597720022451821 0.2370268512906596 0.0
9.471021754366422 0.2472916581956264 0.0
7.714083843672875 0.600212897672991 0.0
4.520815862079482 0.3946753115680038 0.0
2.47356661122767 0.8007389356831706 0.0
7.325494311403363 0.528948935030723 0.0
7.147005275585743 0.2709670165999667 0.0
3.758046446289313 0.5474783841545341 0.0
3.893717059615281 0.1664960777568404 0.0
2.152835534199412 0.8614028741175742 0.0
8.995993312441625 0.1933410497113667 0.0
1.077676137392001 1.368204555688504 0.0
0.2429906229817933 0.9816066505657851 0.0
0.6261765586985547 1.180540007244081 0.0
9.81151801018651 0.816223424030724 0.0
0.6725442903064565 0.8425384371773644 0.0
1.74584086891446 0.2617492458514414 0.0
0.7667820686164357 1.440842670056678 0.0
8.539133693395232 0.1910926418035274 0.0
5.129145653242096 0.3632579123815574 0.0
6.816538849831732 0.2013284992826486 0.0
2.108503954619862 0.5359795950847274 0.0
6.933669557130528 0.4980836483776163 0.0
3.071406705674529 0.4919421055852253 0.0
2.001240035874449 0.2292738462614773 0.0
4.782473531509697 0.4061213127162872 0.0
0.5734126310178208 1.536352720889636 0.0
9.796714529589472 0.4898048068674991 0.0
5.678359041645315 0.373719883316694 0.0
5.427661572827738 0.3646059266294788 0.0
2.075214597532947 1.226969224366912 0.0
3.251521478555126 0.2637671977660283 0.0
2.722180837291864 0.9710783334409533 0.0
9.333262390342384 0.8479609887828539 0.0
1.367251332770493 0.2041553944563636 0.0
1.870721433742522 0.7905989208842599 0.0
1.387906762913351 1.555741687747287 0.0
9.559918612869 0.8444052974080497 0.0
9.286795039366257 0.4698254290795815 0.0
1.507117480770146 1.225129516597721 0.0
[...]
POINT_DATA 600

VECTORS Velocity float
0.0000000000000000 0.0000000000000000 0.0
0.0000000000000000 0.0000000000000000 0.0
0.0000000000000000 0.0000000000000000 0.0
0.0000000000000000 0.0000000000000000 0.0
0.0000000000000000 0.0000000000000000 0.0
0.0000000000000000 0.0000000000000000 0.0
0.0000000000000000 0.0000000000000000 0.0
0.0000000000000000 0.0000000000000000 0.0
0.0000000000000000 0.0000000000000000 0.0
0.0000000000000000 0.0000000000000000 0.0
0.0000000000000000 0.0000000000000000 0.0
0.0000000000000000 0.0000000000000000 0.0
0.0000000000000000 0.0000000000000000 0.0
0.0000000000000000 0.0000000000000000 0.0
0.0000000000000000 0.0000000000000000 0.0
0.0000000000000000 0.0000000000000000 0.0
0.0000000000000000 0.0000000000000000 0.0
0.0000000000000000 0.0000000000000000 0.0
0.0000000000000000 0.0000000000000000 0.0
0.0000000000000000 0.0000000000000000 0.0
0.0000000000000000 0.0000000000000000 0.0
0.0000000000000000 0.0000000000000000 0.0
0.0000000000000000 0.0000000000000000 0.0
0.0000000000000000 0.0000000000000000 0.0
0.0000000000000000 0.0000000000000000 0.0
0.0000000000000000 0.0000000000000000 0.0
0.0000000000000000 0.0000000000000000 0.0
0.0000000000000000 0.0000000000000000 0.0
0.0000000000000000 0.0000000000000000 0.0
0.0000000000000000 0.0000000000000000 0.0
0.0000000000000000 0.0000000000000000 0.0
0.0000000000000000 0.0000000000000000 0.0
0.0000000000000000 0.0000000000000000 0.0
0.0000000000000000 0.0000000000000000 0.0
0.0000000000000000 0.0000000000000000 0.0
0.0000000000000000 0.0000000000000000 0.0
0.0000000000000000 0.0000000000000000 0.0
0.0000000000000000 0.0000000000000000 0.0
0.0000000000000000 0.0000000000000000 0.0
0.0000000000000000 0.0000000000000000 0.0
0.0000000000000000 0.0000000000000000 0.0
0.0000000000000000 0.0000000000000000 0.0
0.8244004792710103 -0.1314386749250766 0.0
0.0000000000000000 0.0000000000000000 0.0
0.0000000000000000 0.0000000000000000 0.0
0.0000000000000000 0.0000000000000000 0.0
0.0000000000000000 0.0000000000000000 0.0
0.0000000000000000 0.0000000000000000 0.0
0.0000000000000000 0.0000000000000000 0.0
0.0000000000000000 0.0000000000000000 0.0
0.0000000000000000 0.0000000000000000 0.0
0.0000000000000000 0.0000000000000000 0.0
0.0000000000000000 0.0000000000000000 0.0
0.0000000000000000 0.0000000000000000 0.0
0.0000000000000000 0.0000000000000000 0.0
0.0000000000000000 0.0000000000000000 0.0
0.0000000000000000 0.0000000000000000 0.0
0.0000000000000000 0.0000000000000000 0.0
0.0000000000000000 0.0000000000000000 0.0
0.0000000000000000 0.0000000000000000 0.0
0.0000000000000000 0.0000000000000000 0.0
0.0000000000000000 0.0000000000000000 0.0
0.0000000000000000 0.0000000000000000 0.0
0.0000000000000000 0.0000000000000000 0.0
0.0000000000000000 0.0000000000000000 0.0
0.0000000000000000 0.0000000000000000 0.0
0.0000000000000000 0.0000000000000000 0.0
0.0000000000000000 0.0000000000000000 0.0
0.0000000000000000 0.0000000000000000 0.0
0.0000000000000000 0.0000000000000000 0.0
0.0000000000000000 0.0000000000000000 0.0
0.0000000000000000 0.0000000000000000 0.0
0.0000000000000000 0.0000000000000000 0.0
0.0000000000000000 0.0000000000000000 0.0
0.0000000000000000 0.0000000000000000 0.0
0.0000000000000000 0.0000000000000000 0.0
0.0000000000000000 0.0000000000000000 0.0
0.0000000000000000 0.0000000000000000 0.0
0.0000000000000000 0.0000000000000000 0.0
0.0000000000000000 0.0000000000000000 0.0
0.0000000000000000 0.0000000000000000 0.0
0.0000000000000000 0.0000000000000000 0.0
0.0000000000000000 0.0000000000000000 0.0
0.0000000000000000 0.0000000000000000 0.0
0.0000000000000000 0.0000000000000000 0.0
0.0000000000000000 0.0000000000000000 0.0
0.0000000000000000 0.0000000000000000 0.0
0.0000000000000000 0.0000000000000000 0.0
0.0000000000000000 0.0000000000000000 0.0
1.0000000000000000 0.0000000000000000 0.0
1.0000000000000000 0.0000000000000000 0.0
1.0000000000000000 0.0000000000000000 0.0
1.0000000000000000 0.0000000000000000 0.0
1.0000000000000000 0.0000000000000000 0.0
1.0000000000000000 0.0000000000000000 0.0
1.0000000000000000 0.0000000000000000 0.0
1.0000000000000000 0.0000000000000000 0.0
1.0000000000000000 0.0000000000000000 0.0
0.0000000000000000 0.0000000000000000 0.0
0.0000000000000000 0.0000000000000000 0.0
0.0000000000000000 0.0000000000000000 0.0
0.0000000000000000 0.0000000000000000 0.0
0.0000000000000000 0.0000000000000000 0.0
0.0000000000000000 0.0000000000000000 0.0
0.0000000000000000 0.0000000000000000 0.0
0.0000000000000000 0.0000000000000000 0.0
0.0000000000000000 0.0000000000000000 0.0
0.0000000000000000 0.0000000000000000 0.0
0.0000000000000000 0.0000000000000000 0.0
0.0000000000000000 0.0000000000000000 0.0
0.0000000000000000 0.0000000000000000 0.0
0.0000000000000000 0.0000000000000000 0.0
0.0000000000000000 0.0000000000000000 0.0
0.0000000000000000 0.0000000000000000 0.0
0.0000000000000000 0.0000000000000000 0.0
0.0000000000000000 0.0000000000000000 0.0
0.0000000000000000 0.0000000000000000 0.0
0.0000000000000000 0.0000000000000000 0.0
0.0000000000000000 0.0000000000000000 0.0
0.0000000000000000 0.0000000000000000 0.0
0.0000000000000000 0.0000000000000000 0.0
0.0000000000000000 0.0000000000000000 0.0
0.0000000000000000 0.0000000000000000 0.0
0.0000000000000000 0.0000000000000000 0.0
0.0000000000000000 0.0000000000000000 0.0
0.0000000000000000 0.0000000000000000 0.0
0.0000000000000000 0.0000000000000000 0.0
0.0000000000000000 0.0000000000000000 0.0
0.0000000000000000 0.0000000000000000 0.0
0.0000000000000000 0.0000000000000000 0.0
0.0000000000000000 0.0000000000000000 0.0
0.0000000000000000 0.0000000000000000 0.0
0.0000000000000000 0.0000000000000000 0.0
0.0000000000000000 0.0000000000000000 0.0
0.0000000000000000 0.0000000000000000 0.0
0.0000000000000000 0.0000000000000000 0.0
0.0000000000000000 0.0000000000000000 0.0
0.0000000000000000 0.0000000000000000 0.0
0.0000000000000000 0.0000000000000000 0.0
0.0000000000000000 0.0000000000000000 0.0
0.0000000000000000 0.0000000000000000 0.0
0.0000000000000000 0.0000000000000000 0.0
0.0000000000000000 0.0000000000000000 0.0
0.0000000000000000 0.0000000000000000 0.0
0.0000000000000000 0.0000000000000000 0.0
0.0000000000000000 0.0000000000000000 0.0
0.0000000000000000 0.0000000000000000 0.0
1.0711019721668362 -0.4627924375261658 0.0
0.9663909459051578 -0.1959193289495703 0.0
0.9838743264253876 -0.0294548136307403 0.0
1.0703698124477703 0.3851947001488157 0.0
1.3509951077940354 0.0036191946187307 0.0
1.4343603288372051 -0.0864560503281095 0.0
1.4505303555378526 -0.1779530164125042 0.0
1.2340994050384793 -0.1079855176025790 0.0
1.3308823236117859 -0.0806470022901154 0.0
1.5247679834704866 -0.1146726893042491 0.0
1.5862178344174203 -0.0293500724090042 0.0
1.5312584971760730 0.0197868841378012 0.0
1.5832661011178732 0.0965325760868813 0.0
1.5097414556611206 -0.1200233970499592 0.0
1.1941569689106313 0.0020584678662439 0.0
1.3467276569808391 -0.0988722229007608 0.0
1.2329434418835894 0.2295003990196040 0.0
1.5837157171709568 0.0718025392239209 0.0
1.5623402526566927 0.0095668536510765 0.0
1.1619157726491600 -0.0487872267630762 0.0
1.2624528738933249 -0.0251171465697338 0.0
1.1565270839050652 -0.0566994323329457 0.0
1.5276197953863080 -0.0563356076273464 0.0
1.5806330585184956 0.0545146963710172 0.0
1.2038650539002740 0.0917405431079026 0.0
1.1409432161462847 -0.2418050591087145 0.0
1.4959136529382939 0.0147264977680435 0.0
1.4959406656204208 -0.0178521864238021 0.0
1.5255054780009465 0.0355591315905301 0.0
1.5474565936518272 0.0132617330246475 0.0
1.3232047946376453 -0.1173304187212164 0.0
1.4873244166790560 0.0097328580448839 0.0
1.6541740728723389 0.0255455447475154 0.0
1.3589246598964850 0.1309748826672595 0.0
1.4230067883023840 -0.0437967113547908 0.0
1.3811922872104074 -0.0478757964943995 0.0
1.3307120515727189 -0.1428803224873114 0.0
1.5090699729337513 0.0926926452597049 0.0
1.5119843523598591 0.0022340829890620 0.0
1.6249824853497064 -0.1063226670904868 0.0
1.6830084767963240 -0.0381735791553933 0.0
1.2053558585328183 -0.0953312677845480 0.0
1.5893619771798106 -0.0200966347529993 0.0
0.9896303884772457 0.0586630473335214 0.0
0.8727456608925044 0.0325206783749993 0.0
1.3807205008062722 -0.0486081470886965 0.0
0.8925860890896691 0.0282027002549200 0.0
0.8772035443658932 -0.0514306492759685 0.0
1.0022606563110195 0.0452072713045043 0.0
1.3157421110643734 -0.0501804815459031 0.0
1.8002751140091799 -0.1358908734182241 0.0
1.2794150930963741 0.0005053004666471 0.0
0.9888912502559235 -0.0684415942703335 0.0
1.4358784154816977 -0.1058605454974215 0.0
1.3652701640074922 0.0408322284743609 0.0
1.3268731555846802 0.0014976430797933 0.0
1.2188728290765367 -0.0206809863239404 0.0
1.0828300564039419 -0.0680015629559425 0.0
1.0736539470730089 0.0196923383678533 0.0
1.2496206589562779 0.0237154017562602 0.0
1.4502359660075617 -0.0620121305259103 0.0
1.2284021339021025 -0.0295108336214261 0.0
1.2041941733594625 -0.2078011879987881 0.0
1.1274062535272249 0.3386304367257268 0.0
1.0995389624919016 0.1990810710446747 0.0
1.4260114383835765 -0.0734354708445739 0.0
1.2972044242759682 0.0939527359286218 0.0
1.4002968400986404 0.0539790744195053 0.0
1.2316220317051840 0.0218104724029252 0.0
1.7382924816244669 0.0680667101878252 0.0
1.4834881133969200 -0.0099206422962051 0.0
1.3746817125500976 -0.0569045800350895 0.0
0.9242608550605166 0.0122789056963436 0.0
1.0997781544291656 -0.0142330777105246 0.0
1.6050912053127873 -0.1337964600685764 0.0
1.3108249874356930 0.0492256189485272 0.0
1.4477828760148390 0.0716180394392384 0.0
1.3757299056895258 -0.0517361232573576 0.0
1.2417845702110373 -0.0434995868653072 0.0
1.5384720466691391 -0.0424564095337931 0.0
1.6090791097334893 0.0405164070967028 0.0
1.3679621426375534 0.0180357646669320 0.0
1.4051936281936201 -0.0873849934728123 0.0
1.0795925998492448 -0.0917357218265707 0.0
0.9796212449766664 0.0010103804492925 0.0
1.5047888868756711 -0.1752885772175541 0.0
1.2376022287863955 -0.0975728810058948 0.0
1.5844651780041341 0.0135025721906306 0.0
0.6020215542120547 0.0286102656871160 0.0
0.8724381465847117 0.0990558584558360 0.0
1.6626147854546294 0.0134028346425167 0.0
1.2474220363924133 -0.0068242683040857 0.0
0.8783176973483094 0.0266762163460014 0.0
1.3134260641211102 -0.0963736061223009 0.0
1.1923696260323906 0.0055520756995105 0.0
1.1096942202657887 -0.2787097787065431 0.0
0.8250387647029528 0.0371634231922840 0.0
1.5941800563827084 0.0113512606708980 0.0
1.6642895487140157 -0.0093321283049015 0.0
0.8476976977615197 0.1000427247282399 0.0
1.6075203927226165 0.0560885555788326 0.0
1.0909448194529934 -0.2116823443534834 0.0
1.2216564062755391 0.0326379154033896 0.0
1.0999748260724218 -0.0415655469707095 0.0
1.2308480218057618 0.0147415346753643 0.0
1.6698429296842339 -0.0218068339226736 0.0
1.4382131037999246 -0.2122366476644262 0.0
1.4476217462502154 0.0453887651615642 0.0
1.4484031004673801 0.0886944425767894 0.0
1.3483579768973950 -0.0515559658833112 0.0
0.7455489305716998 -0.0907451198636583 0.0
1.4308031521618407 -0.1522359752730209 0.0
0.6566521215173861 -0.0051916389166703 0.0
1.2421116608665941 -0.0623439243678165 0.0
1.0519959971264401 0.0196644018384351 0.0
1.2566804246841752 -0.0273166316367185 0.0
1.1678664776136916 0.2320996871323996 0.0
1.2819270806332750 0.0946930404460669 0.0
0.7250638355856543 0.0018235910098277 0.0
1.2204465864083427 -0.0770100131624595 0.0
0.7067366890287170 0.0041581807302404 0.0
1.6557927581386298 0.0019205627638790 0.0
1.0151418697315988 0.0772644605959662 0.0
1.3398084046809202 -0.1258935712738191 0.0
1.1380736686015307 0.0013877612699266 0.0
1.4842903689883606 -0.1418627698499972 0.0
0.5668527566458664 -0.0441667772466312 0.0
1.1804450851967345 -0.0784347694723887 0.0
1.1905566526841984 -0.1151507537013674 0.0
1.2857845293182217 -0.1024839219444434 0.0
1.6366920116926926 -0.0139275251365569 0.0
1.6043934537773010 0.0501891053315493 0.0
0.9041827601237825 0.0738519101001173 0.0
1.2412347006607722 -0.0444575521855945 0.0
0.7489443373391590 0.1078630727247512 0.0
0.5934529607142351 -0.0028327845225248 0.0
0.4451850057932378 0.0232473119461254 0.0
1.4265250662344136 -0.0971845227052191 0.0
0.5774488942310665 0.1710549714542270 0.0
0.7009798900351305 -0.0058537657373940 0.0
1.5587648093718611 0.0245568510075584 0.0
1.2913679713313253 -0.0542253551818914 0.0
1.2090549616709190 -0.0401472324542679 0.0
1.5672575259736496 0.0680269373730404 0.0
1.4081224036191724 -0.0682358410488997 0.0
1.5714893597716137 0.0290748731081573 0.0
1.1823899880780397 0.0551106760573807 0.0
1.1150709298453609 -0.2515550507772774 0.0
1.2166004553427234 0.1731636175530827 0.0
1.1082785370262365 0.2356418554991468 0.0
1.0737889440120518 -0.0462257311226422 0.0
1.1845388873964953 0.0251726322497865 0.0
0.9319249205055752 0.0423874748363669 0.0
0.5951384849250169 0.1535008757406766 0.0
0.9917526776616437 -0.0116684762140095 0.0
1.3953388172737307 -0.0392952481594870 0.0
0.7660355040940365 0.0675627865572305 0.0
1.2025306593435898 0.0555427656446338 0.0
1.4409367366250672 -0.0659466402565610 0.0
0.8913838088898571 -0.0198470749320978 0.0
1.2624104210256744 0.0310894886005685 0.0
1.5249259981929117 0.0505953447287029 0.0
1.1926938912211824 -0.1832630477311148 0.0
1.3101281784411725 -0.1067026775646129 0.0
0.5349463889168331 0.1491421451602729 0.0
0.5338708143125214 0.1196299770408055 0.0
0.8398995042957175 -0.0135740330888590 0.0
1.4706342458132990 -0.0818547093095880 0.0
1.4351287647787310 -0.0817115615985892 0.0
0.5648245378103393 0.1715553747895292 0.0
0.6955156571326380 -0.0580534886248604 0.0
1.1213502049433226 0.0211592800355684 0.0
1.4599244983592317 -0.1107612407102125 0.0
0.9847082311070855 -0.0135841898496016 0.0
1.3025291092963134 0.0104142609769094 0.0
1.3818681779041364 -0.0873381280871640 0.0
0.9652787664940475 0.0082342996191313 0.0
0.8745841029904773 0.0706920706377155 0.0
1.3265050613837632 -0.0010889953338208 0.0
0.7694587788248386 -0.0261802193097695 0.0
1.5634535435453836 -0.0255742740960831 0.0
0.7663318769510289 0.0219345967960250 0.0
0.7730103099605818 -0.0296727100117321 0.0
1.2924753419185984 -0.0781944839261814 0.0
1.3822009596272693 -0.0121884542697504 0.0
0.9904836666760171 0.0111963753079101 0.0
0.6083661414804910 0.1919964471675709 0.0
0.9122644929122050 -0.0047779220038177 0.0
1.1600272042310502 -0.0507790262581826 0.0
0.8155572080484685 0.0962724905322683 0.0
1.1747040402728790 0.1415834959816545 0.0
1.0930101129583787 -0.0175720516173935 0.0
0.6808470258749266 0.0183870536551663 0.0
1.5229141283975944 -0.0209820047319055 0.0
0.9047813685256056 -0.0121149379773104 0.0
1.5469005799692550 -0.0256493214830109 0.0
0.4358312017028554 -0.0339231653220675 0.0
1.4511974596558088 -0.1687612626130184 0.0
1.5984176008328850 -0.0123294078366835 0.0
0.5606613133882117 0.1171034811060223 0.0
0.7793940520539145 -0.0246726046619752 0.0
1.5837232432396886 0.0682742959154770 0.0
0.9352900822019550 0.0932936233672150 0.0
1.5617473551771801 0.0571395102475205 0.0
0.9993866605870206 -0.0133656171272060 0.0
0.8005785424419452 -0.0595366596858316 0.0
0.6767852800323361 -0.0343843411461437 0.0
1.0202765800703613 -0.0257021198115643 0.0
1.0034896007766816 0.0297535434426575 0.0
1.4552046382169728 0.0137940753674259 0.0
0.5592286480233510 0.0373015409040266 0.0
0.8819488190039434 -0.0615432713175413 0.0
0.8520458140799714 0.0506775768703690 0.0
1.4236310430183075 0.0797727656669879 0.0
0.8016428430375122 -0.1994804511468152 0.0
0.8298575136213304 -0.0260376146692189 0.0
0.5234286576049115 -0.0486606548820919 0.0
1.0533593972654705 0.0239310167465804 0.0
0.7147803805985967 0.1966031747667592 0.0
0.9030463595347314 0.0437115138128322 0.0
1.2665929401569915 -0.1194432822406203 0.0
0.7632816417326047 -0.0186502757444990 0.0
0.9012499684983868 -0.0016802602351567 0.0
1.0032942760744938 -0.0111655100409260 0.0
0.7922730470110380 -0.0310017972590277 0.0
0.7691140481967903 -0.0445641381949984 0.0
1.4918338602651804 0.0254349463626515 0.0
0.8007484227985592 -0.0316952203640589 0.0
1.0388192367590363 -0.0804721471555067 0.0
0.8394990681054384 0.0547733526328987 0.0
1.2966073224952381 -0.0361450828398779 0.0
0.6338867097197972 -0.0188505215541948 0.0
0.4003660639213515 0.0058953179740357 0.0
1.1853263989347811 -0.0958856181387776 0.0
0.8365944245040587 0.1027317898310335 0.0
0.7951222422336632 -0.0163914948295771 0.0
0.9602556726706525 0.0561560751987272 0.0
1.3397768585276579 -0.0304568374972783 0.0
0.6545364894084278 -0.0211090287913654 0.0
1.2156881398133463 0.1883435510235780 0.0
1.5019702298152993 0.0062024161328098 0.0
0.7108364358000019 -0.0127105148212576 0.0
1.1432555200275729 0.0043525844441074 0.0
1.2721881691633319 -0.0644350205221046 0.0
1.0931007040306693 -0.0510876932454602 0.0
1.4287956487123641 -0.1237768569972999 0.0
0.4723674032358026 0.2116982755950896 0.0
1.7299768448483910 0.0212946937042480 0.0
1.3487603144636049 0.0326235048535602 0.0
0.5581355930402013 0.0508769423662051 0.0
1.4563165397524749 -0.1481133659084169 0.0
1.5119748999958216 -0.0892952367924465 0.0
0.6362792485115253 -0.0074824398122068 0.0
1.0249949383963517 -0.0145872280274377 0.0
0.6730062746910422 -0.0388470646435572 0.0
0.9513260384756076 -0.0773669142127456 0.0
0.7842454459769177 -0.0531112764916609 0.0
0.4037756145954377 0.2141780273844099 0.0
1.1246661340326214 0.2438044985356806 0.0
1.5951262655090652 0.0096506288185431 0.0
0.5819046443543621 0.2198022995892311 0.0
1.5773818895415654 -0.0627227948786370 0.0
1.7460114913555254 0.0984886345432878 0.0
0.5445156971096715 0.2129117178089798 0.0
1.4835272814989153 0.0461126773283001 0.0
1.4138179879535178 -0.1379639653995709 0.0
0.9247228382688120 0.2501040276362109 0.0
1.2891826517980092 -0.0204726520588264 0.0
1.3186754542402692 0.0213941239238930 0.0
0.7802660740046929 0.0898540660804577 0.0
1.3389029339796459 -0.1154071748085872 0.0
0.6962407962988534 -0.0566000895034835 0.0
0.5860270324645793 0.1972945724670196 0.0
0.4087866862389907 0.0211029500919253 0.0
1.2063915312114331 -0.0216938067721204 0.0
0.8842099859896841 -0.2758432759943548 0.0
1.4195492261915195 0.1015962943820167 0.0
1.2965910987548341 -0.1103583816649889 0.0
0.5601493942201407 -0.0118695282995941 0.0
0.5811333964320292 0.0487561772782085 0.0
0.6993439093835349 0.0180333447962808 0.0
1.1564529336894886 0.0029242342939889 0.0
1.2031592911439655 0.2990729924551168 0.0
0.5636531712407612 -0.0330600910090008 0.0
1.1311201059028635 -0.0606120200432769 0.0
0.5927543125883169 0.0405512769641861 0.0
1.5696233954972949 0.0403950605775995 0.0
0.4576175559786290 0.2500833756518099 0.0
0.7415968485473884 -0.1220700004548245 0.0
1.5414278717872905 -0.0448579562276618 0.0
1.2534715157200478 0.0382947961031844 0.0
1.5271241269188900 -0.1390006350535954 0.0
0.6835232243900302 0.0059791239623785 0.0
0.8718927779860167 -0.0341935757560592 0.0
1.4582129838245030 -0.1040726810518654 0.0
1.4042911482312030 -0.0832397481528657 0.0
1.0250950998897992 0.0645534788854942 0.0
1.4497291301102546 0.0375471757838196 0.0
1.3355704177083045 -0.0699585427522032 0.0
1.2734857574390319 0.1517948052219381 0.0
0.8442065392798428 -0.0076180366393678 0.0
0.7442403321994734 -0.0212799854317437 0.0
0.6764409527685807 -0.0462719566881356 0.0
1.3190830334086763 -0.0687254632032301 0.0
1.3249842687828781 -0.0703126939539992 0.0
1.1415090263108185 0.1186091905270625 0.0
0.3385628976295794 0.0309427997120384 0.0
1.4383232888702542 -0.0926186730366882 0.0
0.3034106825821717 0.1115912777403261 0.0
0.6912649195133979 0.1212444967420426 0.0
1.0641686191038857 0.0400080288378684 0.0
0.5383457869408652 -0.1145075161228313 0.0
1.1463392051731862 -0.3166134996608443 0.0
1.3886753180984068 -0.0733499918857019 0.0
1.6094341517975843 -0.0187506863226094 0.0
0.7314559004823682 0.1117336092794424 0.0
1.5211814552140115 -0.0620482199497908 0.0
0.9314989383037956 -0.0331263994020856 0.0
1.3975644890035206 -0.0622349343961515 0.0
0.9333638383486702 -0.0255574977204442 0.0
0.4910709727244973 0.2101009888307590 0.0
0.9084218485660507 -0.0553206986357756 0.0
1.0264382155336969 -0.0642747184077869 0.0
1.5682339003475174 -0.0460185493103677 0.0