# vtk DataFile Version 3.0
LucasCarvalhoTCC Results
ASCII

DATASET POLYDATA
FIELD FieldData 1
TIME 1 1 double
1.8

POINTS 600 float
0.0 2.0 0.0
0.25 1.989125 0.0
0.5 1.958 0.0
0.75 1.908875 0.0
1.0 1.844 0.0
1.25 1.765625 0.0
1.5 1.676 0.0
1.75 1.577375 0.0
2.0 1.472 0.0
2.25 1.362125 0.0
2.5 1.25 0.0
2.75 1.137875 0.0
3.0 1.028 0.0
3.25 0.922625 0.0
3.5 0.8240000000000001 0.0
3.75 0.734375 0.0
4.0 0.6560000000000001 0.0
4.25 0.5911249999999999 0.0
4.5 0.542 0.0
4.75 0.510875 0.0
5.0 0.5 0.0
5.25 0.5036250000000004 0.0
5.5 0.5140000000000002 0.0
5.75 0.5303750000000003 0.0
6.0 0.5519999999999996 0.0
6.25 0.578125 0.0
6.5 0.6080000000000005 0.0
6.75 0.6408749999999999 0.0
7.0 0.6760000000000002 0.0
7.25 0.7126249999999992 0.0
7.5 0.75 0.0
7.75 0.7873750000000004 0.0
8.0 0.8239999999999994 0.0
8.25 0.8591250000000001 0.0
8.5 0.8919999999999999 0.0
8.75 0.921875 0.0
9.0 0.9479999999999991 0.0
9.25 0.9696250000000011 0.0
9.5 0.9859999999999984 0.0
9.75 0.9963750000000013 0.0
10.0 1.0 0.0
0.0 0.0 0.0
10.0 0.0 0.0
0.124999999999674 1.994562500000014 0.0
0.3749999999999947 1.973562500000001 0.0
0.6249999999999918 1.933437500000002 0.0
0.874999999999979 1.876437500000006 0.0
1.124999999999963 1.804812500000012 0.0
1.374999999999944 1.72081250000002 0.0
1.624999999999985 1.626687500000006 0.0
1.874999999999953 1.52468750000002 0.0
2.124999999999936 1.417062500000028 0.0
2.374999999999952 1.306062500000022 0.0
2.624999999999919 1.193937500000036 0.0
2.87499999999992 1.082937500000035 0.0
3.124999999999946 0.9753125000000229 0.0
3.374999999999948 0.8733125000000204 0.0
3.624999999999972 0.77918750000001 0.0
3.874999999999963 0.6951875000000118 0.0
4.124999999999968 0.6235625000000082 0.0
4.394409538298571 0.5627485257243309 0.0
4.583333333333322 0.5316250000000015 0.0
4.666666666666668 0.5212499999999999 0.0
4.833333333333334 0.50725 0.0
4.916666666666667 0.503625 0.0
5.083333333333334 0.5012083333333335 0.0
5.166666666666666 0.502416666666667 0.0
5.333333333333334 0.5070833333333337 0.0
5.416666666666667 0.510541666666667 0.0
5.583333333333334 0.5194583333333336 0.0
5.666666666666666 0.5249166666666669 0.0
5.833333333333338 0.5375833333333339 0.0
5.916666666666661 0.544791666666666 0.0
6.105781577147724 0.5630541748119369 0.0
6.375 0.5930625000000003 0.0
6.624999999999988 0.6244374999999988 0.0
6.874999999999994 0.6584374999999991 0.0
7.125 0.6943124999999997 0.0
7.375 0.7313124999999996 0.0
7.624999999999994 0.7686874999999992 0.0
7.875 0.8056874999999999 0.0
8.125 0.8415624999999998 0.0
8.374999999999991 0.8755624999999989 0.0
8.624999999999995 0.9069374999999993 0.0
8.874999999999995 0.9349374999999991 0.0
9.125 0.9588125000000001 0.0
9.375 0.9778124999999998 0.0
9.625 0.9911874999999999 0.0
9.875 0.9981875000000007 0.0
0.0 1.799999999999167 0.0
0.0 1.6 0.0
0.0 1.400000000001387 0.0
0.0 1.200000000002774 0.0
0.0 1.000000000004117 0.0
0.0 0.8000000000033287 0.0
0.0 0.6000000000024965 0.0
0.0 0.4000000000016644 0.0
0.0 0.200000000000832 0.0
0.199999999999856 0.0 0.0
0.3999999999996677 0.0 0.0
0.5999999999994683 0.0 0.0
0.7999999999993286 0.0 0.0
0.9999999999991888 0.0 0.0
1.199999999999033 0.0 0.0
1.399999999998576 0.0 0.0
1.599999999997992 0.0 0.0
1.799999999997408 0.0 0.0
1.999999999996825 0.0 0.0
2.199999999996241 0.0 0.0
2.399999999995657 0.0 0.0
2.599999999995073 0.0 0.0
2.79999999999449 0.0 0.0
2.999999999993906 0.0 0.0
3.199999999993322 0.0 0.0
3.399999999992738 0.0 0.0
3.599999999992154 0.0 0.0
3.799999999991571 0.0 0.0
3.999999999991022 0.0 0.0
4.199999999991187 0.0 0.0
4.399999999991491 0.0 0.0
4.599999999991795 0.0 0.0
4.799999999992099 0.0 0.0
4.999999999992403 0.0 0.0
5.199999999992706 0.0 0.0
5.39999999999301 0.0 0.0
5.599999999993313 0.0 0.0
5.799999999993618 0.0 0.0
5.999999999993922 0.0 0.0
6.199999999994227 0.0 0.0
6.39999999999453 0.0 0.0
6.599999999994833 0.0 0.0
6.799999999995138 0.0 0.0
6.999999999995442 0.0 0.0
7.199999999995747 0.0 0.0
7.39999999999605 0.0 0.0
7.599999999996353 0.0 0.0
7.799999999996658 0.0 0.0
7.999999999996962 0.0 0.0
8.199999999997265 0.0 0.0
8.399999999997569 0.0 0.0
8.599999999997873 0.0 0.0
8.799999999998176 0.0 0.0
8.99999999999848 0.0 0.0
9.199999999998786 0.0 0.0
9.399999999999089 0.0 0.0
9.599999999999392 0.0 0.0
9.799999999999697 0.0 0.0
10.0 0.1999999999995579 0.0
10.0 0.3999999999989749 0.0
10.0 0.5999999999989468 0.0
10.0 0.7999999999994734 0.0
0.913963423524136 0.9126937851647636 0.0
1.629657910441747 0.8286436141773268 0.0
2.300136613917738 0.6369890708869279 0.0
0.5989085226155619 1.38125543468559 0.0
1.274155622640533 1.242773398230304 0.0
2.860215383945273 0.5217401976756945 0.0
9.469653920408135 0.4910067017840992 0.0
8.984679546317787 0.4696119782494839 0.0
8.499397693277212 0.4463630640980716 0.0
3.270918412356206 0.4522692359356972 0.0
1.223039611612243 0.5146439900227544 0.0
2.024812732135938 1.00818256045515 0.0
0.5365376864627701 0.5434316309416508 0.0
8.114834335444021 0.4602948767329583 0.0
7.742261962994204 0.4117304941858466 0.0
0.9443382341364558 1.456061359265878 0.0
1.665275621558886 1.201744468407863 0.0
1.89566112584099 0.4397284596316843 0.0
3.691409759982064 0.3560936332572802 0.0
7.368457390036411 0.3792926046732459 0.0
0.5071184951703254 0.9340893429149442 0.0
0.3822273842356539 1.647625881691675 0.0
5.916285335387544 0.2564903116750689 0.0
5.628860531758535 0.2582323053999509 0.0
5.380471017960128 0.2502349014663197 0.0
5.139244585769944 0.2549145445969738 0.0
2.686085237972266 0.8031095648160084 0.0
4.507599040026292 0.263176944655695 0.0
6.983755234374982 0.3380000000001097 0.0
9.720925955181613 0.6635813325201156 0.0
1.288006195687152 0.8759679848503046 0.0
9.20556379558699 0.6923669083350594 0.0
2.319913492084225 0.9512500928262699 0.0
8.73203612228155 0.6151508464420534 0.0
4.868679481352366 0.2526598053940744 0.0
4.10358044398202 0.3012437332986487 0.0
6.602422946953217 0.3126221952225479 0.0
2.534693527909069 0.3583319619586092 0.0
6.193332317503376 0.2894654215336858 0.0
0.8804088217382579 0.3735513844182569 0.0
0.7663303172393539 1.679065267574722 0.0
3.081211528283084 0.6968015573146217 0.0
1.241762689885858 1.521465072418641 0.0
1.573472750763779 0.3374689934575129 0.0
1.475107933015155 1.403918544935278 0.0
0.8212739503602162 1.195790902469637 0.0
4.681049549092561 0.3558177014380842 0.0
9.439519900118443 0.7366884444350511 0.0
2.201393787062887 0.3261463175998884 0.0
2.015369189818184 0.7109460688851087 0.0
8.32727069655695 0.6360373328685593 0.0
8.961488632119996 0.7119124617705204 0.0
9.22773266034565 0.3109430611770705 0.0
0.3000513553073295 1.178778127105867 0.0
1.91985473842554 1.233084801189704 0.0
8.749827252515535 0.3049638092131281 0.0
3.50551132590258 0.5576614504134195 0.0
3.040500962406976 0.290446660105673 0.0
9.72097519930939 0.3037986529514364 0.0
0.3073166349239687 0.3249300260882615 0.0
0.2948185331392187 0.7229775107826154 0.0
1.46029425821417 1.06552904833304 0.0
0.8085718129253527 0.673531272847494 0.0
7.913326191751847 0.5738936378911789 0.0
8.295349499871781 0.2556682497524391 0.0
4.31359646688283 0.3665214152100782 0.0
7.542842082022704 0.5249918217576657 0.0
1.058357552227335 1.116692590939024 0.0
2.214297272750292 1.159898327391242 0.0
2.901187336648686 0.8282146771898153 0.0
3.933498145061447 0.4325241689837319 0.0
7.956006969037984 0.2667411694088205 0.0
7.172393179434975 0.4835114022190097 0.0
1.440243631802057 0.6689433452646625 0.0
3.458541882144431 0.2581755850286561 0.0
5.791617360065465 0.3978542524532168 0.0
5.981529865241493 0.3900667299390458 0.0
1.083462543944253 0.7203994120564634 0.0
1.78518471978951 1.008552691762234 0.0
2.77360122246243 0.2689852172070111 0.0
2.565134389978369 0.9928826788184764 0.0
2.543046005790158 0.6034091352176242 0.0
3.293038780485421 0.6769811703257343 0.0
6.790787388653942 0.4353933509634578 0.0
1.140204059461831 0.2538227257007896 0.0
0.6242104065654487 0.2738473600765566 0.0
6.393430278703709 0.3766405270445946 0.0
8.533059390324546 0.6950580701614406 0.0
0.9961263693263854 1.612128843772703 0.0
1.697598586607002 0.5781950992180334 0.0
8.087930458724863 0.6517815437732153 0.0
0.2748906317360928 1.770749713716887 0.0
0.5785110002099415 1.757022387413085 0.0
5.550004842562332 0.3852675728674634 0.0
4.948161884155141 0.3480305424737933 0.0
1.741244734175577 1.381979611033466 0.0
5.312408927381063 0.3621256994047111 0.0
0.2492139438157334 1.453132031680879 0.0
7.597720022451821 0.2370268512906596 0.0
9.471021754366422 0.2472916581956264 0.0
7.714083843672875 0.600212897672991 0.0
4.520815862079482 0.3946753115680038 0.0
2.47356661122767 0.8007389356831706 0.0
7.325494311403363 0.528948935030723 0.0
7.147005275585743 0.2709670165999667 0.0
3.758046446289313 0.5474783841545341 0.0
3.893717059615281 0.1664960777568404 0.0
2.152835534199412 0.8614028741175742 0.0
8.995993312441625 0.1933410497113667 0.0
1.077676137392001 1.368204555688504 0.0
0.2429906229817933 0.9816066505657851 0.0
0.6261765586985547 1.180540007244081 0.0
9.81151801018651 0.816223424030724 0.0
0.6725442903064565 0.8425384371773644 0.0
1.74584086891446 0.2617492458514414 0.0
0.7667820686164357 1.440842670056678 0.0
8.539133693395232 0.1910926418035274 0.0
5.129145653242096 0.3632579123815574 0.0
6.816538849831732 0.2013284992826486 0.0
2.108503954619862 0.5359795950847274 0.0
6.933669557130528 0.4980836483776163 0.0
3.071406705674529 0.4919421055852253 0.0
2.001240035874449 0.2292738462614773 0.0
4.782473531509697 0.4061213127162872 0.0
0.5734126310178208 1.536352720889636 0.0
9.796714529589472 0.4898048068674991 0.0
5.678359041645315 0.373719883316694 0.0
5.427661572827738 0.3646059266294788 0.0
2.075214597532947 1.226969224366912 0.0
3.251521478555126 0.2637671977660283 0.0
2.722180837291864 0.9710783334409533 0.0
9.333262390342384 0.8479609887828539 0.0
1.367251332770493 0.2041553944563636 0.0
1.870721433742522 0.7905989208842599 0.0
1.387906762913351 1.555741687747287 0.0
9.559918612869 0.8444052974080497 0.0
9.286795039366257 0.4698254290795815 0.0
1.507117480770146 1.225129516597721 0.0
[...]
POINT_DATA 600

VECTORS Velocity float
0.0000000000000000 0.0000000000000000 0.0
0.0000000000000000 0.0000000000000000 0.0
0.0000000000000000 0.0000000000000000 0.0
0.0000000000000000 0.0000000000000000 0.0
0.0000000000000000 0.0000000000000000 0.0
0.0000000000000000 0.0000000000000000 0.0
0.0000000000000000 0.0000000000000000 0.0
0.0000000000000000 0.0000000000000000 0.0
0.0000000000000000 0.0000000000000000 0.0
0.0000000000000000 0.0000000000000000 0.0
0.0000000000000000 0.0000000000000000 0.0
0.0000000000000000 0.0000000000000000 0.0
0.0000000000000000 0.0000000000000000 0.0
0.0000000000000000 0.0000000000000000 0.0
0.0000000000000000 0.0000000000000000 0.0
0.0000000000000000 0.0000000000000000 0.0
0.0000000000000000 0.0000000000000000 0.0
0.0000000000000000 0.0000000000000000 0.0
0.0000000000000000 0.0000000000000000 0.0
0.0000000000000000 0.0000000000000000 0.0
0.0000000000000000 0.0000000000000000 0.0
0.0000000000000000 0.0000000000000000 0.0
0.0000000000000000 0.0000000000000000 0.0
0.0000000000000000 0.0000000000000000 0.0
0.0000000000000000 0.0000000000000000 0.0
0.0000000000000000 0.0000000000000000 0.0
0.0000000000000000 0.0000000000000000 0.0
0.0000000000000000 0.0000000000000000 0.0
0.0000000000000000 0.0000000000000000 0.0
0.0000000000000000 0.0000000000000000 0.0
0.0000000000000000 0.0000000000000000 0.0
0.0000000000000000 0.0000000000000000 0.0
0.0000000000000000 0.0000000000000000 0.0
0.0000000000000000 0.0000000000000000 0.0
0.0000000000000000 0.0000000000000000 0.0
0.0000000000000000 0.0000000000000000 0.0
0.0000000000000000 0.0000000000000000 0.0
0.0000000000000000 0.0000000000000000 0.0
0.0000000000000000 0.0000000000000000 0.0
0.0000000000000000 0.0000000000000000 0.0
0.0000000000000000 0.0000000000000000 0.0
0.0000000000000000 0.0000000000000000 0.0
0.8248785549070069 -0.1309897164524904 0.0
0.0000000000000000 0.0000000000000000 0.0
0.0000000000000000 0.0000000000000000 0.0
0.0000000000000000 0.0000000000000000 0.0
0.0000000000000000 0.0000000000000000 0.0
0.0000000000000000 0.0000000000000000 0.0
0.0000000000000000 0.0000000000000000 0.0
0.0000000000000000 0.0000000000000000 0.0
0.0000000000000000 0.0000000000000000 0.0
0.0000000000000000 0.0000000000000000 0.0
0.0000000000000000 0.0000000000000000 0.0
0.0000000000000000 0.0000000000000000 0.0
0.0000000000000000 0.0000000000000000 0.0
0.0000000000000000 0.0000000000000000 0.0
0.0000000000000000 0.0000000000000000 0.0
0.0000000000000000 0.0000000000000000 0.0
0.0000000000000000 0.0000000000000000 0.0
0.0000000000000000 0.0000000000000000 0.0
0.0000000000000000 0.0000000000000000 0.0
0.0000000000000000 0.0000000000000000 0.0
0.0000000000000000 0.0000000000000000 0.0
0.0000000000000000 0.0000000000000000 0.0
0.0000000000000000 0.0000000000000000 0.0
0.0000000000000000 0.0000000000000000 0.0
0.0000000000000000 0.0000000000000000 0.0
0.0000000000000000 0.0000000000000000 0.0
0.0000000000000000 0.0000000000000000 0.0
0.0000000000000000 0.0000000000000000 0.0
0.0000000000000000 0.0000000000000000 0.0
0.0000000000000000 0.0000000000000000 0.0
0.0000000000000000 0.0000000000000000 0.0
0.0000000000000000 0.0000000000000000 0.0
0.0000000000000000 0.0000000000000000 0.0
0.0000000000000000 0.0000000000000000 0.0
0.0000000000000000 0.0000000000000000 0.0
0.0000000000000000 0.0000000000000000 0.0
0.0000000000000000 0.0000000000000000 0.0
0.0000000000000000 0.0000000000000000 0.0
0.0000000000000000 0.0000000000000000 0.0
0.0000000000000000 0.0000000000000000 0.0
0.0000000000000000 0.0000000000000000 0.0
0.0000000000000000 0.0000000000000000 0.0
0.0000000000000000 0.0000000000000000 0.0
0.0000000000000000 0.0000000000000000 0.0
0.0000000000000000 0.0000000000000000 0.0
0.0000000000000000 0.0000000000000000 0.0
0.0000000000000000 0.0000000000000000 0.0
1.0000000000000000 0.0000000000000000 0.0
1.0000000000000000 0.0000000000000000 0.0
1.0000000000000000 0.0000000000000000 0.0
1.0000000000000000 0.0000000000000000 0.0
1.0000000000000000 0.0000000000000000 0.0
1.0000000000000000 0.0000000000000000 0.0
1.0000000000000000 0.0000000000000000 0.0
1.0000000000000000 0.0000000000000000 0.0
1.0000000000000000 0.0000000000000000 0.0
0.0000000000000000 0.0000000000000000 0.0
0.0000000000000000 0.0000000000000000 0.0
0.0000000000000000 0.0000000000000000 0.0
0.0000000000000000 0.0000000000000000 0.0
0.0000000000000000 0.0000000000000000 0.0
0.0000000000000000 0.0000000000000000 0.0
0.0000000000000000 0.0000000000000000 0.0
0.0000000000000000 0.0000000000000000 0.0
0.0000000000000000 0.0000000000000000 0.0
0.0000000000000000 0.0000000000000000 0.0
0.0000000000000000 0.0000000000000000 0.0
0.0000000000000000 0.0000000000000000 0.0
0.0000000000000000 0.0000000000000000 0.0
0.0000000000000000 0.0000000000000000 0.0
0.0000000000000000 0.0000000000000000 0.0
0.0000000000000000 0.0000000000000000 0.0
0.0000000000000000 0.0000000000000000 0.0
0.0000000000000000 0.0000000000000000 0.0
0.0000000000000000 0.0000000000000000 0.0
0.0000000000000000 0.0000000000000000 0.0
0.0000000000000000 0.0000000000000000 0.0
0.0000000000000000 0.0000000000000000 0.0
0.0000000000000000 0.0000000000000000 0.0
0.0000000000000000 0.0000000000000000 0.0
0.0000000000000000 0.0000000000000000 0.0
0.0000000000000000 0.0000000000000000 0.0
0.0000000000000000 0.0000000000000000 0.0
0.0000000000000000 0.0000000000000000 0.0
0.0000000000000000 0.0000000000000000 0.0
0.0000000000000000 0.0000000000000000 0.0
0.0000000000000000 0.0000000000000000 0.0
0.0000000000000000 0.0000000000000000 0.0
0.0000000000000000 0.0000000000000000 0.0
0.0000000000000000 0.0000000000000000 0.0
0.0000000000000000 0.0000000000000000 0.0
0.0000000000000000 0.0000000000000000 0.0
0.0000000000000000 0.0000000000000000 0.0
0.0000000000000000 0.0000000000000000 0.0
0.0000000000000000 0.0000000000000000 0.0
0.0000000000000000 0.0000000000000000 0.0
0.0000000000000000 0.0000000000000000 0.0
0.0000000000000000 0.0000000000000000 0.0
0.0000000000000000 0.0000000000000000 0.0
0.0000000000000000 0.0000000000000000 0.0
0.0000000000000000 0.0000000000000000 0.0
0.0000000000000000 0.0000000000000000 0.0
0.0000000000000000 0.0000000000000000 0.0
0.0000000000000000 0.0000000000000000 0.0
0.0000000000000000 0.0000000000000000 0.0
1.0710672854796965 -0.4597314568045612 0.0
0.9675386069239276 -0.1915277188440149 0.0
0.9834325734792306 -0.0277170430978441 0.0
1.0706292455412085 0.3823234899205221 0.0
1.2975991334787502 0.0029294032294699 0.0
1.3709522797615421 -0.0731169753170326 0.0
1.4141839571442709 -0.1596312884899850 0.0
1.2262364844220690 -0.0891484616584436 0.0
1.3219666122124698 -0.0836504802191115 0.0
1.5049219336000845 -0.1092098651178508 0.0
1.5719298674431350 -0.0271529722932186 0.0
1.5221838446161624 0.0183208033487210 0.0
1.5791897718370134 0.0929551415131979 0.0
1.5052378707045357 -0.1198567973005365 0.0
1.2120908475239880 -0.0004235107110411 0.0
1.3252287068872253 -0.0994419258435417 0.0
1.2290198680960458 0.2029582430871597 0.0
1.5793568916814780 0.0701689675118451 0.0
1.5583560298308412 0.0124365307564553 0.0
1.1864474690729720 -0.0556032065789090 0.0
1.2750937065588628 -0.0367846796140067 0.0
1.1760724699732699 -0.0410975901520265 0.0
1.5282610505980470 -0.0553375516449891 0.0
1.5806015205478745 0.0527123550516789 0.0
1.1758883741385822 0.0838835050474083 0.0
1.1614457255356581 -0.2219607283288001 0.0
1.4969608508412768 0.0156973130994304 0.0
1.4973348629674577 -0.0182152681213824 0.0
1.5266925116020358 0.0353297659396906 0.0
1.5486736674525576 0.0133781062272345 0.0
1.3242845082610706 -0.1234172560594334 0.0
1.4878681095429480 0.0087234480168793 0.0
1.6542632762444198 0.0250982463782427 0.0
1.3526058041234259 0.1290908397802701 0.0
1.3567928581096984 -0.0391536780963060 0.0
1.3774266544803144 -0.0468065810826569 0.0
1.3195566479331493 -0.1459189211713964 0.0
1.5022478232809724 0.0928317880295569 0.0
1.5129132644462906 0.0017693999031947 0.0
1.6252561044214215 -0.1053117456160390 0.0
1.6830284873795303 -0.0387694556667738 0.0
1.2131984305456693 -0.0832640262798278 0.0
1.5895870469336897 -0.0194529255315954 0.0
1.0282201656257384 0.0504318108952369 0.0
0.9187400494447003 0.0233038566134943 0.0
1.3771582743614739 -0.0565644382112027 0.0
0.9405557187773090 0.0095542050949844 0.0
0.9216923084603240 -0.0495063231203995 0.0
1.0444107083893639 0.0285575872592178 0.0
1.2777242390373618 -0.0421968803140692 0.0
1.7989878869821108 -0.1354857868612938 0.0
1.2807671389683788 0.0003236972731389 0.0
1.0124884940181538 -0.0661482432816187 0.0
1.3881861425310424 -0.0899452100979207 0.0
1.3655946301745185 0.0390390266700752 0.0
1.3244563518911743 0.0029666947816967 0.0
1.2256331700734986 -0.0213136791493564 0.0
1.0739069558601997 -0.0484417753783783 0.0
1.1060429849920876 0.0048250808816452 0.0
1.2528877321078598 0.0215034883828398 0.0
1.4478151014661520 -0.0628182718502304 0.0
1.2302214344339921 -0.0269205375445498 0.0
1.2081879747880706 -0.2029457937572791 0.0
1.1345006137352758 0.3249968910595877 0.0
1.0935573074377873 0.1842974949624964 0.0
1.3772695604142309 -0.0649472739269387 0.0
1.2752739562208848 0.0751987357224806 0.0
1.4013393040614337 0.0555542729708453 0.0
1.2317497742371246 0.0204979306807835 0.0
1.7382003348748505 0.0675684911432655 0.0
1.4804347002873710 -0.0076395980564571 0.0
1.3252178296923645 -0.0500359192753341 0.0
0.9551304204730275 -0.0055968448475381 0.0
1.1116229144827883 -0.0203127676006134 0.0
1.6041489745361290 -0.1326335648704149 0.0
1.3093257466286514 0.0497080793763863 0.0
1.4463014297551715 0.0704524858111217 0.0
1.3382834888434010 -0.0420482683752354 0.0
1.2438733722430355 -0.0429994242679114 0.0
1.5352138862208520 -0.0419744425363842 0.0
1.6074709843410124 0.0409377459807528 0.0
1.3226865569411888 0.0116427904448981 0.0
1.3665064165525127 -0.0821489654990142 0.0
1.0896233359465253 -0.0852349385801069 0.0
1.0013325508926403 -0.0181324071344022 0.0
1.4705868780106781 -0.1605193329952195 0.0
1.2381080819201149 -0.1002998214461823 0.0
1.5838874537711856 0.0133617579583496 0.0
0.6504305647082019 0.0269934736944038 0.0
0.9042417218403773 0.0900089721938059 0.0
1.6625957772064190 0.0136137067554370 0.0
1.2466419194159544 -0.0064949346583538 0.0
0.9266216104946774 0.0114943281421011 0.0
1.2945094105320771 -0.0832176202395442 0.0
1.1962057255853307 0.0056580115579130 0.0
1.1207035077600893 -0.2705969302491660 0.0
0.8631437979680061 0.0370959569442873 0.0
1.5916861233746376 0.0110332978630981 0.0
1.6626657970964251 -0.0098000453098888 0.0
0.8899120705458475 0.0822970204312860 0.0
1.6054887020373123 0.0559424752899660 0.0
1.0917773839395268 -0.1840046920230327 0.0
1.2239906043369317 0.0328760528551867 0.0
1.1100322022944435 -0.0393505658918089 0.0
1.2318325214694079 0.0162638592111279 0.0
1.6684994453931887 -0.0224267365631787 0.0
1.4120279233668767 -0.2051196940641758 0.0
1.4451871916327912 0.0441518046809010 0.0
1.4492985838767689 0.0877635606219815 0.0
1.3460248332199574 -0.0509756962989363 0.0
0.7465379414061341 -0.0903145027482913 0.0
1.3869024919379591 -0.1430760096044829 0.0
0.6644707271151892 -0.0064198420274516 0.0
1.2536784027506136 -0.0700456857677639 0.0
1.0455089329794844 0.0245280091345775 0.0
1.2239416785916015 -0.0178844136766564 0.0
1.1691996384799843 0.2299062576349713 0.0
1.2441826169407968 0.0833080475939025 0.0
0.7696826918424189 0.0080326549994099 0.0
1.2307231240439642 -0.0728376288633364 0.0
0.7106584360341661 0.0033038560703490 0.0
1.6533940852902247 0.0020476849539685 0.0
1.0157009825254093 0.0772127656663716 0.0
1.3255746893313256 -0.1103550388529185 0.0
1.1374528098563952 0.0012499042635908 0.0
1.4747341409042685 -0.1400780685221417 0.0
0.5965886060080228 -0.0439706205917164 0.0
1.1789991938690807 -0.0782678521079148 0.0
1.2097531225800526 -0.0984606053724653 0.0
1.2813634283162494 -0.0993226459476477 0.0
1.6340600193952293 -0.0139554993543972 0.0
1.6025557617216937 0.0495416443331192 0.0
0.9390348348881408 0.0593637191630076 0.0
1.2425066574120180 -0.0434553478039129 0.0
0.7632619981216479 0.0976626307257496 0.0
0.5996704543698455 -0.0029399417304185 0.0
0.4820147613324404 0.0251496335810540 0.0
1.3688107574917656 -0.0827474186669581 0.0
0.6105474462173072 0.1596843355093113 0.0
0.7062090961042459 -0.0063813281498442 0.0
1.5460838644635440 0.0224328624735741 0.0
1.2976403477110738 -0.0573648328967439 0.0
1.2110795789998228 -0.0385501843291711 0.0
1.5636276044116055 0.0649399020909762 0.0
1.3556326298110104 -0.0640351279050414 0.0
1.5707039016417370 0.0296431694894667 0.0
1.1819985042223986 0.0567490861248829 0.0
1.1205648530632495 -0.2378981380360544 0.0
1.1985282908268220 0.1557396750698314 0.0
1.1089048863918525 0.2262274653593998 0.0
1.0737123168856821 -0.0464933242636517 0.0
1.1845300599818376 0.0256899211973175 0.0
0.9320186890993145 0.0417008886294896 0.0
0.6195248833550470 0.1405503487683658 0.0
0.9917153067652688 -0.0117322206469696 0.0
1.3332807854411275 -0.0343141276415617 0.0
0.7671424894794064 0.0677385222086780 0.0
1.2195146199978439 0.0443341270292664 0.0
1.3744054272086046 -0.0564269385422455 0.0
0.9161362413208087 -0.0148762793869072 0.0
1.2626494535333603 0.0323011198845464 0.0
1.5191827866090235 0.0490668651513147 0.0
1.1973162900768946 -0.1554440088834738 0.0
1.3017740081853364 -0.0977418299153828 0.0
0.5674936138356899 0.1378944183685604 0.0
0.5673201103216640 0.1100004641574182 0.0
0.8407623260943461 -0.0130922083104612 0.0
1.4582370985851159 -0.0839675905973417 0.0
1.3765900617820745 -0.0703738117614696 0.0
0.5951806767615762 0.1582380851288657 0.0
0.7142827995589179 -0.0517004136225995 0.0
1.1206896086804139 0.0204791649757046 0.0
1.4383593067222198 -0.0986360619092657 0.0
0.9840092957683760 -0.0123436340326156 0.0
1.2561675575015865 0.0110713602933052 0.0
1.3427046843016910 -0.0710189842323692 0.0
0.9632212055573975 0.0083049965082526 0.0
0.8734231737879156 0.0707700362066130 0.0
1.3262311760971532 -0.0005773551609335 0.0
0.7725983098819689 -0.0265344220838271 0.0
1.5620530679899298 -0.0255468242500513 0.0
0.7682895194083184 0.0216996261388801 0.0
0.7747958501524478 -0.0291690850532960 0.0
1.2813774249471521 -0.0723839023587241 0.0
1.3401071985401936 -0.0124936462281487 0.0
0.9925534314519407 0.0100905953250451 0.0
0.6377330526259156 0.1802876095978594 0.0
0.9109648981748392 -0.0044887163053936 0.0
1.1835787666140256 -0.0439274063282880 0.0
0.8239573084801061 0.0887688581044456 0.0
1.1877899623876200 0.1250175746501721 0.0
1.1272091654960759 -0.0333527320555440 0.0
0.6820284646200762 0.0183265042413948 0.0
1.5108324256632046 -0.0197900207244752 0.0
0.9069281852765908 -0.0117133155010733 0.0
1.5342794189106557 -0.0236623898682034 0.0
0.4686047431411188 -0.0373045356429350 0.0
1.4134695373756601 -0.1605048120928927 0.0
1.5830176928094535 -0.0129828879969512 0.0
0.5942160590383723 0.1137987045744237 0.0
0.7810230573594555 -0.0247243657769652 0.0
1.5788387893879179 0.0689804026369674 0.0
0.9385466015642715 0.0871985612800213 0.0
1.5569407459870723 0.0550864065273463 0.0
1.0429655080397577 -0.0279128741973081 0.0
0.8028891055759411 -0.0584178254519977 0.0
0.6936452824561684 -0.0278805834865493 0.0
1.0179038211442506 -0.0256907777946169 0.0
1.0011624136837691 0.0296759892981007 0.0
1.4567139260839432 0.0133080267560989 0.0
0.5634926499845727 0.0368225573090467 0.0
0.8797801268381091 -0.0609780574384875 0.0
0.8512059984968496 0.0514209753707481 0.0
1.4232724162691119 0.0773035370062931 0.0
0.8034948209430650 -0.1982346623156506 0.0
0.8290410872348409 -0.0262651780331850 0.0
0.5289565192261858 -0.0481539226886645 0.0
1.0917367224201058 0.0093053553608191 0.0
0.7289315607877689 0.1870042069968411 0.0
0.9013732663461638 0.0434143059636614 0.0
1.2639404983555480 -0.1265780033990428 0.0
0.7667714947177732 -0.0179450475967960 0.0
0.9019771333225779 -0.0019043881633473 0.0
1.0450070314544910 -0.0215922973933080 0.0
0.7921960988997294 -0.0297133443149140 0.0
0.7678437812096244 -0.0452947246736000 0.0
1.4825087352502142 0.0271227253551593 0.0
0.8017668224326800 -0.0319338098270139 0.0
1.0375524249690897 -0.0675618192074464 0.0
0.8396608866899601 0.0547416881718530 0.0
1.3013645123693733 -0.0485066679160639 0.0
0.6404695400225818 -0.0168087872305266 0.0
0.4330692116557404 0.0072668230210020 0.0
1.1690411719217741 -0.0722135419222734 0.0
0.8369374958019393 0.1011332566457804 0.0
0.7947236591985758 -0.0166512969991893 0.0
0.9587132572193886 0.0565936051490670 0.0
1.2891779603800635 -0.0248746127717975 0.0
0.6598364200348259 -0.0200183481448878 0.0
1.2121182238641168 0.1858076048706332 0.0
1.4930227739272652 0.0041727461067774 0.0
0.7109705659825976 -0.0124651675119703 0.0
1.1416702592326597 0.0046270249792934 0.0
1.2537112128265262 -0.0538525960899005 0.0
1.1233447842483006 -0.0465015057960070 0.0
1.3760276595864178 -0.1127025439788162 0.0
0.4970619518067648 0.2017874036597190 0.0
1.7282169636447429 0.0211342876556145 0.0
1.3023994186464951 0.0258542745086451 0.0
0.5666344139592623 0.0508996323979985 0.0
1.4120941624076127 -0.1324941280970839 0.0
1.4961152384036305 -0.0922882037188086 0.0
0.6451739794178469 -0.0065131868218745 0.0
1.0233903007140819 -0.0080600330303500 0.0
0.6725463461965254 -0.0389609089082479 0.0
0.9514441888922479 -0.0774105302694472 0.0
0.7845352325869982 -0.0534001619373104 0.0
0.4266356039108154 0.2068114461983756 0.0
1.1399206536419706 0.2210931475470004 0.0
1.5952131602936446 0.0106784421645442 0.0
0.5926654110652479 0.2138224705611921 0.0
1.5747467183783022 -0.0603421531458413 0.0
1.7454757910656904 0.0969040160390323 0.0
0.5647994199167931 0.2023995651005063 0.0
1.4807879579249026 0.0443728966147617 0.0
1.4087341973861722 -0.1408638439127282 0.0
0.9270168223242742 0.2480744875253907 0.0
1.2925077295538641 -0.0192616747150969 0.0
1.3206611971835938 0.0194389025546826 0.0
0.7802501873944987 0.0899129081244174 0.0
1.3391222928698223 -0.1103895722605653 0.0
0.7025140459320767 -0.0564800047174581 0.0
0.6125432319851217 0.1872171340412919 0.0
0.4312919726219742 0.0235405114660784 0.0
1.2244325342786162 -0.0288747511630269 0.0
0.8861989579968884 -0.2742356028304468 0.0
1.4146724630296950 0.0994617078667658 0.0
1.2954272046963955 -0.1028996633914021 0.0
0.5639285225592523 -0.0113814251486331 0.0
0.5858383019916890 0.0479918850501121 0.0
0.7005817034702275 0.0179026914232659 0.0
1.1342740270159628 0.0120735625382160 0.0
1.2020029915764565 0.2767392348708141 0.0
0.5700134973167613 -0.0344899976354157 0.0
1.1528274846774313 -0.0518808438048526 0.0
0.5941923924099177 0.0410800906853339 0.0
1.5701815890190665 0.0397771505581305 0.0
0.4726362283334593 0.2422395256184161 0.0
0.7472396194923981 -0.1209060759690818 0.0
1.5387818060041516 -0.0446744772533151 0.0
1.2562870436788023 0.0359372040006754 0.0
1.4990285538963999 -0.1333495646156292 0.0
0.6850666531720125 0.0059166733026367 0.0
0.8707095774365288 -0.0340592763154073 0.0
1.4538848463607357 -0.1033766789001997 0.0
1.3550688548422629 -0.0708867799249155 0.0
1.0219693840980550 0.0622427654456043 0.0
1.4467146816164045 0.0366694213556394 0.0
1.3148648683626285 -0.0725811492181881 0.0
1.2570538549309198 0.1315607762130315 0.0
0.8927127320180946 -0.0076086247508549 0.0
0.7430052637959030 -0.0213445622484610 0.0
0.6746745204989530 -0.0462122621366325 0.0
1.3145185737777396 -0.0714000371017809 0.0
1.3099672727744651 -0.0520492357538383 0.0
1.1232166385519329 0.1125490675178328 0.0
0.3597129271741106 0.0297214629946677 0.0
1.4355369247338663 -0.0951491318594729 0.0
0.3201762532691884 0.1118378327770990 0.0
0.6907351647725949 0.1210304452541658 0.0
1.0980400807626953 0.0227652433263704 0.0
0.5393254501273610 -0.1151124500264115 0.0
1.1468658627911115 -0.3127328682413935 0.0
1.3580322991329425 -0.0702532899249872 0.0
1.6093399109423452 -0.0181838783043856 0.0
0.7309176533578959 0.1117847970404449 0.0
1.5226048102177903 -0.0611059061264072 0.0
0.9283688419958958 -0.0330678079320374 0.0
1.3695423268873450 -0.0588904611367535 0.0
0.9309753835935489 -0.0257769165259498 0.0
0.5123408889562722 0.1998939837558197 0.0
0.9090061611026493 -0.0547085110795393 0.0
1.0274398496840194 -0.0641201458345580 0.0