# vtk DataFile Version 3.0
LucasCarvalhoTCC Results
ASCII

DATASET POLYDATA
FIELD FieldData 1
TIME 1 1 double
3.1

POINTS 600 float
0.0 2.0 0.0
0.25 1.989125 0.0
0.5 1.958 0.0
0.75 1.908875 0.0
1.0 1.844 0.0
1.25 1.765625 0.0
1.5 1.676 0.0
1.75 1.577375 0.0
2.0 1.472 0.0
2.25 1.362125 0.0
2.5 1.25 0.0
2.75 1.137875 0.0
3.0 1.028 0.0
3.25 0.922625 0.0
3.5 0.8240000000000001 0.0
3.75 0.734375 0.0
4.0 0.6560000000000001 0.0
4.25 0.5911249999999999 0.0
4.5 0.542 0.0
4.75 0.510875 0.0
5.0 0.5 0.0
5.25 0.5036250000000004 0.0
5.5 0.5140000000000002 0.0
5.75 0.5303750000000003 0.0
6.0 0.5519999999999996 0.0
6.25 0.578125 0.0
6.5 0.6080000000000005 0.0
6.75 0.6408749999999999 0.0
7.0 0.6760000000000002 0.0
7.25 0.7126249999999992 0.0
7.5 0.75 0.0
7.75 0.7873750000000004 0.0
8.0 0.8239999999999994 0.0
8.25 0.8591250000000001 0.0
8.5 0.8919999999999999 0.0
8.75 0.921875 0.0
9.0 0.9479999999999991 0.0
9.25 0.9696250000000011 0.0
9.5 0.9859999999999984 0.0
9.75 0.9963750000000013 0.0
10.0 1.0 0.0
0.0 0.0 0.0
10.0 0.0 0.0
0.124999999999674 1.994562500000014 0.0
0.3749999999999947 1.973562500000001 0.0
0.6249999999999918 1.933437500000002 0.0
0.874999999999979 1.876437500000006 0.0
1.124999999999963 1.804812500000012 0.0
1.374999999999944 1.72081250000002 0.0
1.624999999999985 1.626687500000006 0.0
1.874999999999953 1.52468750000002 0.0
2.124999999999936 1.417062500000028 0.0
2.374999999999952 1.306062500000022 0.0
2.624999999999919 1.193937500000036 0.0
2.87499999999992 1.082937500000035 0.0
3.124999999999946 0.9753125000000229 0.0
3.374999999999948 0.8733125000000204 0.0
3.624999999999972 0.77918750000001 0.0
3.874999999999963 0.6951875000000118 0.0
4.124999999999968 0.6235625000000082 0.0
4.394409538298571 0.5627485257243309 0.0
4.583333333333322 0.5316250000000015 0.0
4.666666666666668 0.5212499999999999 0.0
4.833333333333334 0.50725 0.0
4.916666666666667 0.503625 0.0
5.083333333333334 0.5012083333333335 0.0
5.166666666666666 0.502416666666667 0.0
5.333333333333334 0.5070833333333337 0.0
5.416666666666667 0.510541666666667 0.0
5.583333333333334 0.5194583333333336 0.0
5.666666666666666 0.5249166666666669 0.0
5.833333333333338 0.5375833333333339 0.0
5.916666666666661 0.544791666666666 0.0
6.105781577147724 0.5630541748119369 0.0
6.375 0.5930625000000003 0.0
6.624999999999988 0.6244374999999988 0.0
6.874999999999994 0.6584374999999991 0.0
7.125 0.6943124999999997 0.0
7.375 0.7313124999999996 0.0
7.624999999999994 0.7686874999999992 0.0
7.875 0.8056874999999999 0.0
8.125 0.8415624999999998 0.0
8.374999999999991 0.8755624999999989 0.0
8.624999999999995 0.9069374999999993 0.0
8.874999999999995 0.9349374999999991 0.0
9.125 0.9588125000000001 0.0
9.375 0.9778124999999998 0.0
9.625 0.9911874999999999 0.0
9.875 0.9981875000000007 0.0
0.0 1.799999999999167 0.0
0.0 1.6 0.0
0.0 1.400000000001387 0.0
0.0 1.200000000002774 0.0
0.0 1.000000000004117 0.0
0.0 0.8000000000033287 0.0
0.0 0.6000000000024965 0.0
0.0 0.4000000000016644 0.0
0.0 0.200000000000832 0.0
0.199999999999856 0.0 0.0
0.3999999999996677 0.0 0.0
0.5999999999994683 0.0 0.0
0.7999999999993286 0.0 0.0
0.9999999999991888 0.0 0.0
1.199999999999033 0.0 0.0
1.399999999998576 0.0 0.0
1.599999999997992 0.0 0.0
1.799999999997408 0.0 0.0
1.999999999996825 0.0 0.0
2.199999999996241 0.0 0.0
2.399999999995657 0.0 0.0
2.599999999995073 0.0 0.0
2.79999999999449 0.0 0.0
2.999999999993906 0.0 0.0
3.199999999993322 0.0 0.0
3.399999999992738 0.0 0.0
3.599999999992154 0.0 0.0
3.799999999991571 0.0 0.0
3.999999999991022 0.0 0.0
4.199999999991187 0.0 0.0
4.399999999991491 0.0 0.0
4.599999999991795 0.0 0.0
4.799999999992099 0.0 0.0
4.999999999992403 0.0 0.0
5.199999999992706 0.0 0.0
5.39999999999301 0.0 0.0
5.599999999993313 0.0 0.0
5.799999999993618 0.0 0.0
5.999999999993922 0.0 0.0
6.199999999994227 0.0 0.0
6.39999999999453 0.0 0.0
6.599999999994833 0.0 0.0
6.799999999995138 0.0 0.0
6.999999999995442 0.0 0.0
7.199999999995747 0.0 0.0
7.39999999999605 0.0 0.0
7.599999999996353 0.0 0.0
7.799999999996658 0.0 0.0
7.999999999996962 0.0 0.0
8.199999999997265 0.0 0.0
8.399999999997569 0.0 0.0
8.599999999997873 0.0 0.0
8.799999999998176 0.0 0.0
8.99999999999848 0.0 0.0
9.199999999998786 0.0 0.0
9.399999999999089 0.0 0.0
9.599999999999392 0.0 0.0
9.799999999999697 0.0 0.0
10.0 0.1999999999995579 0.0
10.0 0.3999999999989749 0.0
10.0 0.5999999999989468 0.0
10.0 0.7999999999994734 0.0
0.913963423524136 0.9126937851647636 0.0
1.629657910441747 0.8286436141773268 0.0
2.300136613917738 0.6369890708869279 0.0
0.5989085226155619 1.38125543468559 0.0
1.274155622640533 1.242773398230304 0.0
2.860215383945273 0.5217401976756945 0.0
9.469653920408135 0.4910067017840992 0.0
8.984679546317787 0.4696119782494839 0.0
8.499397693277212 0.4463630640980716 0.0
3.270918412356206 0.4522692359356972 0.0
1.223039611612243 0.5146439900227544 0.0
2.024812732135938 1.00818256045515 0.0
0.5365376864627701 0.5434316309416508 0.0
8.114834335444021 0.4602948767329583 0.0
7.742261962994204 0.4117304941858466 0.0
0.9443382341364558 1.456061359265878 0.0
1.665275621558886 1.201744468407863 0.0
1.89566112584099 0.4397284596316843 0.0
3.691409759982064 0.3560936332572802 0.0
7.368457390036411 0.3792926046732459 0.0
0.5071184951703254 0.9340893429149442 0.0
0.3822273842356539 1.647625881691675 0.0
5.916285335387544 0.2564903116750689 0.0
5.628860531758535 0.2582323053999509 0.0
5.380471017960128 0.2502349014663197 0.0
5.139244585769944 0.2549145445969738 0.0
2.686085237972266 0.8031095648160084 0.0
4.507599040026292 0.263176944655695 0.0
6.983755234374982 0.3380000000001097 0.0
9.720925955181613 0.6635813325201156 0.0
1.288006195687152 0.8759679848503046 0.0
9.20556379558699 0.6923669083350594 0.0
2.319913492084225 0.9512500928262699 0.0
8.73203612228155 0.6151508464420534 0.0
4.868679481352366 0.2526598053940744 0.0
4.10358044398202 0.3012437332986487 0.0
6.602422946953217 0.3126221952225479 0.0
2.534693527909069 0.3583319619586092 0.0
6.193332317503376 0.2894654215336858 0.0
0.8804088217382579 0.3735513844182569 0.0
0.7663303172393539 1.679065267574722 0.0
3.081211528283084 0.6968015573146217 0.0
1.241762689885858 1.521465072418641 0.0
1.573472750763779 0.3374689934575129 0.0
1.475107933015155 1.403918544935278 0.0
0.8212739503602162 1.195790902469637 0.0
4.681049549092561 0.3558177014380842 0.0
9.439519900118443 0.7366884444350511 0.0
2.201393787062887 0.3261463175998884 0.0
2.015369189818184 0.7109460688851087 0.0
8.32727069655695 0.6360373328685593 0.0
8.961488632119996 0.7119124617705204 0.0
9.22773266034565 0.3109430611770705 0.0
0.3000513553073295 1.178778127105867 0.0
1.91985473842554 1.233084801189704 0.0
8.749827252515535 0.3049638092131281 0.0
3.50551132590258 0.5576614504134195 0.0
3.040500962406976 0.290446660105673 0.0
9.72097519930939 0.3037986529514364 0.0
0.3073166349239687 0.3249300260882615 0.0
0.2948185331392187 0.7229775107826154 0.0
1.46029425821417 1.06552904833304 0.0
0.8085718129253527 0.673531272847494 0.0
7.913326191751847 0.5738936378911789 0.0
8.295349499871781 0.2556682497524391 0.0
4.31359646688283 0.3665214152100782 0.0
7.542842082022704 0.5249918217576657 0.0
1.058357552227335 1.116692590939024 0.0
2.214297272750292 1.159898327391242 0.0
2.901187336648686 0.8282146771898153 0.0
3.933498145061447 0.4325241689837319 0.0
7.956006969037984 0.2667411694088205 0.0
7.172393179434975 0.4835114022190097 0.0
1.440243631802057 0.6689433452646625 0.0
3.458541882144431 0.2581755850286561 0.0
5.791617360065465 0.3978542524532168 0.0
5.981529865241493 0.3900667299390458 0.0
1.083462543944253 0.7203994120564634 0.0
1.78518471978951 1.008552691762234 0.0
2.77360122246243 0.2689852172070111 0.0
2.565134389978369 0.9928826788184764 0.0
2.543046005790158 0.6034091352176242 0.0
3.293038780485421 0.6769811703257343 0.0
6.790787388653942 0.4353933509634578 0.0
1.140204059461831 0.2538227257007896 0.0
0.6242104065654487 0.2738473600765566 0.0
6.393430278703709 0.3766405270445946 0.0
8.533059390324546 0.6950580701614406 0.0
0.9961263693263854 1.612128843772703 0.0
1.697598586607002 0.5781950992180334 0.0
8.087930458724863 0.6517815437732153 0.0
0.2748906317360928 1.770749713716887 0.0
0.5785110002099415 1.757022387413085 0.0
5.550004842562332 0.3852675728674634 0.0
4.948161884155141 0.3480305424737933 0.0
1.741244734175577 1.381979611033466 0.0
5.312408927381063 0.3621256994047111 0.0
0.2492139438157334 1.453132031680879 0.0
7.597720022451821 0.2370268512906596 0.0
9.471021754366422 0.2472916581956264 0.0
7.714083843672875 0.600212897672991 0.0
4.520815862079482 0.3946753115680038 0.0
2.47356661122767 0.8007389356831706 0.0
7.325494311403363 0.528948935030723 0.0
7.147005275585743 0.2709670165999667 0.0
3.758046446289313 0.5474783841545341 0.0
3.893717059615281 0.1664960777568404 0.0
2.152835534199412 0.8614028741175742 0.0
8.995993312441625 0.1933410497113667 0.0
1.077676137392001 1.368204555688504 0.0
0.2429906229817933 0.9816066505657851 0.0
0.6261765586985547 1.180540007244081 0.0
9.81151801018651 0.816223424030724 0.0
0.6725442903064565 0.8425384371773644 0.0
1.74584086891446 0.2617492458514414 0.0
0.7667820686164357 1.440842670056678 0.0
8.539133693395232 0.1910926418035274 0.0
5.129145653242096 0.3632579123815574 0.0
6.816538849831732 0.2013284992826486 0.0
2.108503954619862 0.5359795950847274 0.0
6.933669557130528 0.4980836483776163 0.0
3.071406705674529 0.4919421055852253 0.0
2.001240035874449 0.2292738462614773 0.0
4.782473531509697 0.4061213127162872 0.0
0.5734126310178208 1.536352720889636 0.0
9.796714529589472 0.4898048068674991 0.0
5.678359041645315 0.373719883316694 0.0
5.427661572827738 0.3646059266294788 0.0
2.075214597532947 1.226969224366912 0.0
3.251521478555126 0.2637671977660283 0.0
2.722180837291864 0.9710783334409533 0.0
9.333262390342384 0.8479609887828539 0.0
1.367251332770493 0.2041553944563636 0.0
1.870721433742522 0.7905989208842599 0.0
1.387906762913351 1.555741687747287 0.0
9.559918612869 0.8444052974080497 0.0
9.286795039366257 0.4698254290795815 0.0
1.507117480770146 1.225129516597721 0.0
[...]
POINT_DATA 600

VECTORS Velocity float
0.0000000000000000 0.0000000000000000 0.0
0.0000000000000000 0.0000000000000000 0.0
0.0000000000000000 0.0000000000000000 0.0
0.0000000000000000 0.0000000000000000 0.0
0.0000000000000000 0.0000000000000000 0.0
0.0000000000000000 0.0000000000000000 0.0
0.0000000000000000 0.0000000000000000 0.0
0.0000000000000000 0.0000000000000000 0.0
0.0000000000000000 0.0000000000000000 0.0
0.0000000000000000 0.0000000000000000 0.0
0.0000000000000000 0.0000000000000000 0.0
0.0000000000000000 0.0000000000000000 0.0
0.0000000000000000 0.0000000000000000 0.0
0.0000000000000000 0.0000000000000000 0.0
0.0000000000000000 0.0000000000000000 0.0
0.0000000000000000 0.0000000000000000 0.0
0.0000000000000000 0.0000000000000000 0.0
0.0000000000000000 0.0000000000000000 0.0
0.0000000000000000 0.0000000000000000 0.0
0.0000000000000000 0.0000000000000000 0.0
0.0000000000000000 0.0000000000000000 0.0
0.0000000000000000 0.0000000000000000 0.0
0.0000000000000000 0.0000000000000000 0.0
0.0000000000000000 0.0000000000000000 0.0
0.0000000000000000 0.0000000000000000 0.0
0.0000000000000000 0.0000000000000000 0.0
0.0000000000000000 0.0000000000000000 0.0
0.0000000000000000 0.0000000000000000 0.0
0.0000000000000000 0.0000000000000000 0.0
0.0000000000000000 0.0000000000000000 0.0
0.0000000000000000 0.0000000000000000 0.0
0.0000000000000000 0.0000000000000000 0.0
0.0000000000000000 0.0000000000000000 0.0
0.0000000000000000 0.0000000000000000 0.0
0.0000000000000000 0.0000000000000000 0.0
0.0000000000000000 0.0000000000000000 0.0
0.0000000000000000 0.0000000000000000 0.0
0.0000000000000000 0.0000000000000000 0.0
0.0000000000000000 0.0000000000000000 0.0
0.0000000000000000 0.0000000000000000 0.0
0.0000000000000000 0.0000000000000000 0.0
0.0000000000000000 0.0000000000000000 0.0
0.8242689134372712 -0.1315730856000973 0.0
0.0000000000000000 0.0000000000000000 0.0
0.0000000000000000 0.0000000000000000 0.0
0.0000000000000000 0.0000000000000000 0.0
0.0000000000000000 0.0000000000000000 0.0
0.0000000000000000 0.0000000000000000 0.0
0.0000000000000000 0.0000000000000000 0.0
0.0000000000000000 0.0000000000000000 0.0
0.0000000000000000 0.0000000000000000 0.0
0.0000000000000000 0.0000000000000000 0.0
0.0000000000000000 0.0000000000000000 0.0
0.0000000000000000 0.0000000000000000 0.0
0.0000000000000000 0.0000000000000000 0.0
0.0000000000000000 0.0000000000000000 0.0
0.0000000000000000 0.0000000000000000 0.0
0.0000000000000000 0.0000000000000000 0.0
0.0000000000000000 0.0000000000000000 0.0
0.0000000000000000 0.0000000000000000 0.0
0.0000000000000000 0.0000000000000000 0.0
0.0000000000000000 0.0000000000000000 0.0
0.0000000000000000 0.0000000000000000 0.0
0.0000000000000000 0.0000000000000000 0.0
0.0000000000000000 0.0000000000000000 0.0
0.0000000000000000 0.0000000000000000 0.0
0.0000000000000000 0.0000000000000000 0.0
0.0000000000000000 0.0000000000000000 0.0
0.0000000000000000 0.0000000000000000 0.0
0.0000000000000000 0.0000000000000000 0.0
0.0000000000000000 0.0000000000000000 0.0
0.0000000000000000 0.0000000000000000 0.0
0.0000000000000000 0.0000000000000000 0.0
0.0000000000000000 0.0000000000000000 0.0
0.0000000000000000 0.0000000000000000 0.0
0.0000000000000000 0.0000000000000000 0.0
0.0000000000000000 0.0000000000000000 0.0
0.0000000000000000 0.0000000000000000 0.0
0.0000000000000000 0.0000000000000000 0.0
0.0000000000000000 0.0000000000000000 0.0
0.0000000000000000 0.0000000000000000 0.0
0.0000000000000000 0.0000000000000000 0.0
0.0000000000000000 0.0000000000000000 0.0
0.0000000000000000 0.0000000000000000 0.0
0.0000000000000000 0.0000000000000000 0.0
0.0000000000000000 0.0000000000000000 0.0
0.0000000000000000 0.0000000000000000 0.0
0.0000000000000000 0.0000000000000000 0.0
0.0000000000000000 0.0000000000000000 0.0
1.0000000000000000 0.0000000000000000 0.0
1.0000000000000000 0.0000000000000000 0.0
1.0000000000000000 0.0000000000000000 0.0
1.0000000000000000 0.0000000000000000 0.0
1.0000000000000000 0.0000000000000000 0.0
1.0000000000000000 0.0000000000000000 0.0
1.0000000000000000 0.0000000000000000 0.0
1.0000000000000000 0.0000000000000000 0.0
1.0000000000000000 0.0000000000000000 0.0
0.0000000000000000 0.0000000000000000 0.0
0.0000000000000000 0.0000000000000000 0.0
0.0000000000000000 0.0000000000000000 0.0
0.0000000000000000 0.0000000000000000 0.0
0.0000000000000000 0.0000000000000000 0.0
0.0000000000000000 0.0000000000000000 0.0
0.0000000000000000 0.0000000000000000 0.0
0.0000000000000000 0.0000000000000000 0.0
0.0000000000000000 0.0000000000000000 0.0
0.0000000000000000 0.0000000000000000 0.0
0.0000000000000000 0.0000000000000000 0.0
0.0000000000000000 0.0000000000000000 0.0
0.0000000000000000 0.0000000000000000 0.0
0.0000000000000000 0.0000000000000000 0.0
0.0000000000000000 0.0000000000000000 0.0
0.0000000000000000 0.0000000000000000 0.0
0.0000000000000000 0.0000000000000000 0.0
0.0000000000000000 0.0000000000000000 0.0
0.0000000000000000 0.0000000000000000 0.0
0.0000000000000000 0.0000000000000000 0.0
0.0000000000000000 0.0000000000000000 0.0
0.0000000000000000 0.0000000000000000 0.0
0.0000000000000000 0.0000000000000000 0.0
0.0000000000000000 0.0000000000000000 0.0
0.0000000000000000 0.0000000000000000 0.0
0.0000000000000000 0.0000000000000000 0.0
0.0000000000000000 0.0000000000000000 0.0
0.0000000000000000 0.0000000000000000 0.0
0.0000000000000000 0.0000000000000000 0.0
0.0000000000000000 0.0000000000000000 0.0
0.0000000000000000 0.0000000000000000 0.0
0.0000000000000000 0.0000000000000000 0.0
0.0000000000000000 0.0000000000000000 0.0
0.0000000000000000 0.0000000000000000 0.0
0.0000000000000000 0.0000000000000000 0.0
0.0000000000000000 0.0000000000000000 0.0
0.0000000000000000 0.0000000000000000 0.0
0.0000000000000000 0.0000000000000000 0.0
0.0000000000000000 0.0000000000000000 0.0
0.0000000000000000 0.0000000000000000 0.0
0.0000000000000000 0.0000000000000000 0.0
0.0000000000000000 0.0000000000000000 0.0
0.0000000000000000 0.0000000000000000 0.0
0.0000000000000000 0.0000000000000000 0.0
0.0000000000000000 0.0000000000000000 0.0
0.0000000000000000 0.0000000000000000 0.0
0.0000000000000000 0.0000000000000000 0.0
0.0000000000000000 0.0000000000000000 0.0
0.0000000000000000 0.0000000000000000 0.0
1.0711175715043983 -0.4637206612547228 0.0
0.9660971591286409 -0.1975251813703076 0.0
0.9840123633434728 -0.0305474891950803 0.0
1.0703637379425821 0.3854829110962132 0.0
1.3860064532858600 0.0050786766313268 0.0
1.4719543083428122 -0.0949904603935881 0.0
1.4664495773192812 -0.1867880825052020 0.0
1.2352990028037827 -0.1197435154567858 0.0
1.3347146239096193 -0.0764257990814013 0.0
1.5310301693083492 -0.1164749242295011 0.0
1.5895008701857254 -0.0301081544121666 0.0
1.5330557266285589 0.0203616696014434 0.0
1.5837379908405156 0.0979032048520588 0.0
1.5105693172361214 -0.1195549480149507 0.0
1.1805076461454049 0.0036144646445474 0.0
1.3581890083417663 -0.0970868476076786 0.0
1.2332477694087562 0.2443562959412899 0.0
1.5843418697788396 0.0723290929899979 0.0
1.5630194390310854 0.0083866907675131 0.0
1.1447115806239176 -0.0441398580707440 0.0
1.2541511349257506 -0.0182890880592571 0.0
1.1444239908748675 -0.0673616615711628 0.0
1.5272403989439465 -0.0566629344622401 0.0
1.5804933318779133 0.0550287141116189 0.0
1.2215677565038392 0.0965662432589419 0.0
1.1292151628364002 -0.2522146015032167 0.0
1.4956369886575354 0.0144886306156850 0.0
1.4955961344495015 -0.0177442915225529 0.0
1.5252312794541032 0.0356124855242727 0.0
1.5471869066026360 0.0132575184461140 0.0
1.3231528075922938 -0.1144645382358767 0.0
1.4872593639506391 0.0098946033566344 0.0
1.6541128738386959 0.0257542627042257 0.0
1.3607335825141087 0.1309949675937281 0.0
1.4640057818114651 -0.0462401576073321 0.0
1.3830584323178368 -0.0480093408609439 0.0
1.3364776922783772 -0.1400345463385417 0.0
1.5109349894721709 0.0928916946185067 0.0
1.5118149630715338 0.0023587897352471 0.0
1.6249296748018593 -0.1065563025851533 0.0
1.6830024074267131 -0.0380826584193905 0.0
1.2018533547724028 -0.1016111767332398 0.0
1.5893164982829338 -0.0202585809875667 0.0
0.9670398437268614 0.0645913376434464 0.0
0.8469038894128336 0.0367142559759166 0.0
1.3815233984927409 -0.0455492306161238 0.0
0.8657285032948429 0.0389030410024269 0.0
0.8514362000690101 -0.0530685003405671 0.0
0.9790493586679877 0.0547539575452256 0.0
1.3382932098317877 -0.0552393159188762 0.0
1.8004637772079826 -0.1359272184134028 0.0
1.2801194330318693 0.0006004039807338 0.0
0.9776015324411049 -0.0707031331279320 0.0
1.4603560682920367 -0.1159932890867392 0.0
1.3650806761010623 0.0415169660770978 0.0
1.3283480437465893 0.0010939175689529 0.0
1.2163346350863595 -0.0204193925321492 0.0
1.0881691258522010 -0.0804589977041700 0.0
1.0559162840197680 0.0281995097877809 0.0
1.2482803967350811 0.0245395095900555 0.0
1.4509303304855896 -0.0618913350659985 0.0
1.2281010322001853 -0.0302535754962146 0.0
1.2027407046265670 -0.2093081137491062 0.0
1.1235540691996504 0.3451672383314724 0.0
1.1024645127462174 0.2074777388546498 0.0
1.4544677736583185 -0.0782485781016343 0.0
1.3074978127529049 0.1069775228462365 0.0
1.3997162514317272 0.0533847294260005 0.0
1.2318248414583470 0.0223225737888871 0.0
1.7382884381396442 0.0681472989653295 0.0
1.4843511618257053 -0.0104524625020126 0.0
1.4055228357371012 -0.0591867799486669 0.0
0.9090875208430229 0.0217014795096561 0.0
1.0957195697217232 -0.0117883565610135 0.0
1.6052950941877446 -0.1342375219879672 0.0
1.3115350851049989 0.0490043565471398 0.0
1.4481884744931985 0.0720576182166878 0.0
1.3958024794766890 -0.0583820461668318 0.0
1.2410435330457836 -0.0434820833611845 0.0
1.5392251440858093 -0.0425529094684374 0.0
1.6094232854215549 0.0403790228027390 0.0
1.3936260375916238 0.0222021832636339 0.0
1.4270076060911365 -0.0899812769853875 0.0
1.0766552367949085 -0.0945672648466384 0.0
0.9710027855478831 0.0098174780932283 0.0
1.5177902406303307 -0.1818092294696144 0.0
1.2376372554386079 -0.0966755381795811 0.0
1.5845250114555827 0.0135173680032005 0.0
0.5755043705984115 0.0296585022590801 0.0
0.8557275581372953 0.1042083464355910 0.0
1.6626054349074202 0.0133784842487472 0.0
1.2480791417419386 -0.0064876567357285 0.0
0.8507729719987152 0.0352958242218566 0.0
1.3220046890267736 -0.1051388232414818 0.0
1.1912510530504208 0.0055872019236643 0.0
1.1041495076252930 -0.2826980060165599 0.0
0.8053149442872241 0.0371518683945432 0.0
1.5947129768976360 0.0114524299968543 0.0
1.6645860039464526 -0.0092142485551657 0.0
0.8253003434575723 0.1094955881321851 0.0
1.6079377439669669 0.0561205229341265 0.0
1.0896050513848070 -0.2272484657750027 0.0
1.2209404312078558 0.0323497221432017 0.0
1.0967002778493344 -0.0422406508578172 0.0
1.2307182354409811 0.0141821866426704 0.0
1.6700122676260043 -0.0217011940719180 0.0
1.4497761915035199 -0.2141382711724873 0.0
1.4483488148404255 0.0457925363419105 0.0
1.4481061013237795 0.0890181871562977 0.0
1.3491423216063321 -0.0518939591269319 0.0
0.7452989803709864 -0.0908792321104294 0.0
1.4534279539019128 -0.1559900815316452 0.0
0.6543059337858038 -0.0047462518605119 0.0
1.2321182863943829 -0.0561642010316302 0.0
1.0564702438043598 0.0163711309708505 0.0
1.2763151629097631 -0.0339617289379881 0.0
1.1680425955525433 0.2323725591940936 0.0
1.3049628181754813 0.1017923874624826 0.0
0.7005818228304131 -0.0023924218235338 0.0
1.2106015503530354 -0.0795567749078614 0.0
0.7058259660899300 0.0045162997746275 0.0
1.6562684411638506 0.0019161724020385 0.0
1.0150818291200170 0.0772664197086530 0.0
1.3459899173672261 -0.1357112436823589 0.0
1.1381798695895742 0.0014750563989718 0.0
1.4868700842972720 -0.1419132030944356 0.0
0.5521337996791335 -0.0451549015093398 0.0
1.1806743860961575 -0.0784299046384241 0.0
1.1764848944241328 -0.1248833480872433 0.0
1.2866663209259652 -0.1038002819223975 0.0
1.6372603070321106 -0.0138787770300110 0.0
1.6047718734065266 0.0503370421277097 0.0
0.8863036340400083 0.0820069204028073 0.0
1.2408159060751989 -0.0445323135585074 0.0
0.7438374037558757 0.1122619085883972 0.0
0.5925150288046130 -0.0027184706407436 0.0
0.4247749538357884 0.0221854920593728 0.0
1.4592984551421071 -0.1065784602147184 0.0
0.5596144323215529 0.1772580242269313 0.0
0.7003706663436805 -0.0057020901371494 0.0
1.5616201395394447 0.0251282272064875 0.0
1.2869552830535269 -0.0517161035005721 0.0
1.2095090538532740 -0.0405278217190948 0.0
1.5677356906327717 0.0691230412136390 0.0
1.4401121735759612 -0.0684617037930024 0.0
1.5716382863418457 0.0289021971469585 0.0
1.1833845338555040 0.0547690121707376 0.0
1.1117552589844970 -0.2585752976745467 0.0
1.2259910301284571 0.1832836850472242 0.0
1.1075133649298992 0.2405851520643386 0.0
1.0737844075408434 -0.0461802761557625 0.0
1.1845184851061545 0.0250625995340713 0.0
0.9319372560415792 0.0424919702990601 0.0
0.5839630781997460 0.1598890694467816 0.0
0.9917758779017686 -0.0116507254950754 0.0
1.4355100499117279 -0.0414942876067807 0.0
0.7658648811996362 0.0675577030104034 0.0
1.1891526295230683 0.0625059143532847 0.0
1.4806974833889488 -0.0721124110812985 0.0
0.8808485447740501 -0.0229005150300223 0.0
1.2623996975315059 0.0304279189944143 0.0
1.5257723841972719 0.0512513714072831 0.0
1.1876187562469198 -0.1994148002519276 0.0
1.3132955316177310 -0.1117079439275778 0.0
0.5171580563146071 0.1554262269072828 0.0
0.5155832449729209 0.1245845257302993 0.0
0.8397200999391491 -0.0136943996582763 0.0
1.4744733528402740 -0.0808562389373681 0.0
1.4697962977322303 -0.0889631669590750 0.0
0.5489160487343046 0.1787465717378367 0.0
0.6861249661726535 -0.0613322960311976 0.0
1.1214107424727109 0.0212713429582341 0.0
1.4676245484087389 -0.1169007353520931 0.0
0.9855640448785401 -0.0136599564371756 0.0
1.3329488455467473 0.0098067815916739 0.0
1.4025044577534145 -0.0987067246710999 0.0
0.9658029126540802 0.0082026603561261 0.0
0.8751802417777483 0.0704994487735189 0.0
1.3265384304154137 -0.0012114792548551 0.0
0.7686996090863752 -0.0260347480754163 0.0
1.5634826106062647 -0.0255384455566474 0.0
0.7659099061521538 0.0219945657715172 0.0
0.7724906761785747 -0.0298020968647407 0.0
1.2956468825927243 -0.0802922300794015 0.0
1.4049732862905808 -0.0126392902016263 0.0
0.9898537211434592 0.0115203829273115 0.0
0.5929845409336055 0.1980599227085830 0.0
0.9124466145910849 -0.0048099010422563 0.0
1.1439844140396440 -0.0545902618174007 0.0
0.8129706701035985 0.0989070947433216 0.0
1.1653325546405344 0.1516858834152196 0.0
1.0730836296972037 -0.0078593617105595 0.0
0.6810368014613918 0.0184390597501948 0.0
1.5262943560116136 -0.0212294688721929 0.0
0.9042868101014763 -0.0121964744104202 0.0
1.5499347762627340 -0.0265868307280646 0.0
0.4184473605540091 -0.0314936009588373 0.0
1.4687526116975389 -0.1717005415178534 0.0
1.6027777773247651 -0.0121297780524775 0.0
0.5432106522370691 0.1183810779724161 0.0
0.7790565050089483 -0.0246571735939680 0.0
1.5845692064460895 0.0679323922983454 0.0
0.9344798287232770 0.0952975886214313 0.0
1.5623339506013973 0.0580399173244273 0.0
0.9736673365605556 -0.0042729610085441 0.0
0.8000009143842850 -0.0598998708919119 0.0
0.6704809336034135 -0.0377646093159999 0.0
1.0207569975650213 -0.0256856950183538 0.0
1.0039938954723191 0.0297748841808018 0.0
1.4549029553024908 0.0139128405309483 0.0
0.5586486492251955 0.0374034251241115 0.0
0.8827276946380540 -0.0616330351386066 0.0
0.8522261187180807 0.0504670954787813 0.0
1.4233571896307706 0.0804637361258174 0.0
0.8009124267198758 -0.1999476708983992 0.0
0.8301025775461569 -0.0259001024037000 0.0
0.5226168559609138 -0.0487225031451209 0.0
1.0320490201297134 0.0323296879627771 0.0
0.7080570624047237 0.2012981175368807 0.0
0.9033604573060403 0.0437868611603773 0.0
1.2681157708195607 -0.1140553202014697 0.0
0.7623027102870599 -0.0188427803208159 0.0
0.9011051652036166 -0.0015939406283279 0.0
0.9782542794292706 -0.0057931825899368 0.0
0.7925303201195260 -0.0313187515180887 0.0
0.7695791876400923 -0.0442933766067116 0.0
1.4943357182581394 0.0251508800819361 0.0
0.8007862905674638 -0.0314210902358628 0.0
1.0391037192105608 -0.0883937539459955 0.0
0.8394383499449286 0.0547843608969231 0.0
1.2926104213715786 -0.0288181291845799 0.0
0.6322533421504015 -0.0196389914017512 0.0
0.3822868020269888 0.0051296894291246 0.0
1.1934463178729380 -0.1109130110897307 0.0
0.8368587252868690 0.1030462222252778 0.0
0.7951687787118502 -0.0163609872860759 0.0
0.9607149377238365 0.0559183574930260 0.0
1.3727245165658168 -0.0334815270675627 0.0
0.6539433015432718 -0.0214043325714975 0.0
1.2166553497503771 0.1883798158507177 0.0
1.5037519207879217 0.0069580148256050 0.0
0.7108359242636360 -0.0127617786052072 0.0
1.1434688453261477 0.0043221334647290 0.0
1.2799708357007891 -0.0715965521692697 0.0
1.0742987295299959 -0.0550121946155808 0.0
1.4577367144602786 -0.1292920819626357 0.0
0.4592507408157828 0.2169893750218057 0.0
1.7303140348258259 0.0213416078371372 0.0
1.3763942077836979 0.0383753386085201 0.0
0.5555580836156111 0.0509170907206862 0.0
1.4771739903058954 -0.1565727995717026 0.0
1.5165745915537452 -0.0878457260909605 0.0
0.6335013530429258 -0.0077549185685207 0.0
1.0260370878419083 -0.0190162123789232 0.0
0.6730575631518607 -0.0388278677649544 0.0
0.9512793317262074 -0.0773519321016544 0.0
0.7842165705223355 -0.0530702890747941 0.0
0.3915205730715511 0.2181787740089382 0.0
1.1158927080427774 0.2557633359640571 0.0
1.5950820365485627 0.0093791912882402 0.0
0.5783996501852354 0.2220417938352615 0.0
1.5777504592787441 -0.0634642714409392 0.0
1.7460845947947523 0.0987302528232916 0.0
0.5357718152712690 0.2177566562434689 0.0
1.4840437122772767 0.0471064148729037 0.0
1.4150255009685690 -0.1364784341689583 0.0
0.9237474462728041 0.2509573732749897 0.0
1.2875600658207906 -0.0209099551248407 0.0
1.3177545907275379 0.0222245526458996 0.0
0.7802859330507589 0.0898339680922226 0.0
1.3382203147407565 -0.1170250677654942 0.0
0.6953407063542437 -0.0566040196265797 0.0
0.5723898180488105 0.2026288451754063 0.0
0.3984407962301302 0.0197260675380987 0.0
1.1961891787267902 -0.0165248915239848 0.0
0.8835769847285431 -0.2763043991543150 0.0
1.4214399269657751 0.1020065924138541 0.0
1.2971535481876113 -0.1128757558295624 0.0
0.5594354141252080 -0.0119785438060055 0.0
0.5799073983235395 0.0490663034145949 0.0
0.6991168843510630 0.0180689861212855 0.0
1.1708659769170142 -0.0032008751765664 0.0
1.2024675079706892 0.3108088281989847 0.0
0.5618486721351260 -0.0325815221313125 0.0
1.1188817978526893 -0.0669136664332485 0.0
0.5924324149996729 0.0404294528231505 0.0
1.5694802584842378 0.0405483836780884 0.0
0.4515179535219817 0.2536430717561292 0.0
0.7398182607278569 -0.1224436181329656 0.0
1.5420611120326413 -0.0450551016033669 0.0
1.2521357388606857 0.0391087310895069 0.0
1.5373577807958991 -0.1413628206482680 0.0
0.6832191943617747 0.0059951672130556 0.0
0.8721744292912397 -0.0342439376130816 0.0
1.4592830961992131 -0.1038785168103453 0.0
1.4319858537662018 -0.0910333027812452 0.0
1.0270688104385777 0.0660268886564048 0.0
1.4504993328523652 0.0379124896436193 0.0
1.3458623895062376 -0.0656356561171930 0.0
1.2806203478931510 0.1644945126361216 0.0
0.8158400177899218 -0.0072638152779940 0.0
0.7445604264346355 -0.0212804882339480 0.0
0.6769175832631643 -0.0462775428828898 0.0
1.3209416784616272 -0.0659188368726943 0.0
1.3314330733955995 -0.0830871170198095 0.0
1.1530279724005355 0.1219518979535294 0.0
0.3281611426772782 0.0318929523842055 0.0
1.4389744552297510 -0.0917799130751631 0.0
0.2952766105382907 0.1112452006736399 0.0
0.6917315034003255 0.1211596619159108 0.0
1.0451990542339458 0.0494338963206854 0.0
0.5382224975821190 -0.1144114910510306 0.0
1.1459505861383346 -0.3178473739006530 0.0
1.4058058385169059 -0.0734751569888092 0.0
1.6093827897064557 -0.0188635122268589 0.0
0.7315537644414362 0.1116982295673054 0.0
1.5207143932267062 -0.0624152171582730 0.0
0.9322380460015247 -0.0331181427934931 0.0
1.4123377114134599 -0.0641269355283745 0.0
0.9338915426953575 -0.0255089823720514 0.0
0.4807402171449762 0.2151891382994245 0.0
0.9083060372108852 -0.0554734426435862 0.0
1.0263037767432071 -0.0642757302182078 0.0
1.5686016797300359 -0.0456528872504514 0.0