# vtk DataFile Version 3.0
LucasCarvalhoTCC Results
ASCII

DATASET POLYDATA
FIELD FieldData 1
TIME 1 1 double
2.2

POINTS 600 float
0.0 2.0 0.0
0.25 1.989125 0.0
0.5 1.958 0.0
0.75 1.908875 0.0
1.0 1.844 0.0
1.25 1.765625 0.0
1.5 1.676 0.0
1.75 1.577375 0.0
2.0 1.472 0.0
2.25 1.362125 0.0
2.5 1.25 0.0
2.75 1.137875 0.0
3.0 1.028 0.0
3.25 0.922625 0.0
3.5 0.8240000000000001 0.0
3.75 0.734375 0.0
4.0 0.6560000000000001 0.0
4.25 0.5911249999999999 0.0
4.5 0.542 0.0
4.75 0.510875 0.0
5.0 0.5 0.0
5.25 0.5036250000000004 0.0
5.5 0.5140000000000002 0.0
5.75 0.5303750000000003 0.0
6.0 0.5519999999999996 0.0
6.25 0.578125 0.0
6.5 0.6080000000000005 0.0
6.75 0.6408749999999999 0.0
7.0 0.6760000000000002 0.0
7.25 0.7126249999999992 0.0
7.5 0.75 0.0
7.75 0.7873750000000004 0.0
8.0 0.8239999999999994 0.0
8.25 0.8591250000000001 0.0
8.5 0.8919999999999999 0.0
8.75 0.921875 0.0
9.0 0.9479999999999991 0.0
9.25 0.9696250000000011 0.0
9.5 0.9859999999999984 0.0
9.75 0.9963750000000013 0.0
10.0 1.0 0.0
0.0 0.0 0.0
10.0 0.0 0.0
0.124999999999674 1.994562500000014 0.0
0.3749999999999947 1.973562500000001 0.0
0.6249999999999918 1.933437500000002 0.0
0.874999999999979 1.876437500000006 0.0
1.124999999999963 1.804812500000012 0.0
1.374999999999944 1.72081250000002 0.0
1.624999999999985 1.626687500000006 0.0
1.874999999999953 1.52468750000002 0.0
2.124999999999936 1.417062500000028 0.0
2.374999999999952 1.306062500000022 0.0
2.624999999999919 1.193937500000036 0.0
2.87499999999992 1.082937500000035 0.0
3.124999999999946 0.9753125000000229 0.0
3.374999999999948 0.8733125000000204 0.0
3.624999999999972 0.77918750000001 0.0
3.874999999999963 0.6951875000000118 0.0
4.124999999999968 0.6235625000000082 0.0
4.394409538298571 0.5627485257243309 0.0
4.583333333333322 0.5316250000000015 0.0
4.666666666666668 0.5212499999999999 0.0
4.833333333333334 0.50725 0.0
4.916666666666667 0.503625 0.0
5.083333333333334 0.5012083333333335 0.0
5.166666666666666 0.502416666666667 0.0
5.333333333333334 0.5070833333333337 0.0
5.416666666666667 0.510541666666667 0.0
5.583333333333334 0.5194583333333336 0.0
5.666666666666666 0.5249166666666669 0.0
5.833333333333338 0.5375833333333339 0.0
5.916666666666661 0.544791666666666 0.0
6.105781577147724 0.5630541748119369 0.0
6.375 0.5930625000000003 0.0
6.624999999999988 0.6244374999999988 0.0
6.874999999999994 0.6584374999999991 0.0
7.125 0.6943124999999997 0.0
7.375 0.7313124999999996 0.0
7.624999999999994 0.7686874999999992 0.0
7.875 0.8056874999999999 0.0
8.125 0.8415624999999998 0.0
8.374999999999991 0.8755624999999989 0.0
8.624999999999995 0.9069374999999993 0.0
8.874999999999995 0.9349374999999991 0.0
9.125 0.9588125000000001 0.0
9.375 0.9778124999999998 0.0
9.625 0.9911874999999999 0.0
9.875 0.9981875000000007 0.0
0.0 1.799999999999167 0.0
0.0 1.6 0.0
0.0 1.400000000001387 0.0
0.0 1.200000000002774 0.0
0.0 1.000000000004117 0.0
0.0 0.8000000000033287 0.0
0.0 0.6000000000024965 0.0
0.0 0.4000000000016644 0.0
0.0 0.200000000000832 0.0
0.199999999999856 0.0 0.0
0.3999999999996677 0.0 0.0
0.5999999999994683 0.0 0.0
0.7999999999993286 0.0 0.0
0.9999999999991888 0.0 0.0
1.199999999999033 0.0 0.0
1.399999999998576 0.0 0.0
1.599999999997992 0.0 0.0
1.799999999997408 0.0 0.0
1.999999999996825 0.0 0.0
2.199999999996241 0.0 0.0
2.399999999995657 0.0 0.0
2.599999999995073 0.0 0.0
2.79999999999449 0.0 0.0
2.999999999993906 0.0 0.0
3.199999999993322 0.0 0.0
3.399999999992738 0.0 0.0
3.599999999992154 0.0 0.0
3.799999999991571 0.0 0.0
3.999999999991022 0.0 0.0
4.199999999991187 0.0 0.0
4.399999999991491 0.0 0.0
4.599999999991795 0.0 0.0
4.799999999992099 0.0 0.0
4.999999999992403 0.0 0.0
5.199999999992706 0.0 0.0
5.39999999999301 0.0 0.0
5.599999999993313 0.0 0.0
5.799999999993618 0.0 0.0
5.999999999993922 0.0 0.0
6.199999999994227 0.0 0.0
6.39999999999453 0.0 0.0
6.599999999994833 0.0 0.0
6.799999999995138 0.0 0.0
6.999999999995442 0.0 0.0
7.199999999995747 0.0 0.0
7.39999999999605 0.0 0.0
7.599999999996353 0.0 0.0
7.799999999996658 0.0 0.0
7.999999999996962 0.0 0.0
8.199999999997265 0.0 0.0
8.399999999997569 0.0 0.0
8.599999999997873 0.0 0.0
8.799999999998176 0.0 0.0
8.99999999999848 0.0 0.0
9.199999999998786 0.0 0.0
9.399999999999089 0.0 0.0
9.599999999999392 0.0 0.0
9.799999999999697 0.0 0.0
10.0 0.1999999999995579 0.0
10.0 0.3999999999989749 0.0
10.0 0.5999999999989468 0.0
10.0 0.7999999999994734 0.0
0.913963423524136 0.9126937851647636 0.0
1.629657910441747 0.8286436141773268 0.0
2.300136613917738 0.6369890708869279 0.0
0.5989085226155619 1.38125543468559 0.0
1.274155622640533 1.242773398230304 0.0
2.860215383945273 0.5217401976756945 0.0
9.469653920408135 0.4910067017840992 0.0
8.984679546317787 0.4696119782494839 0.0
8.499397693277212 0.4463630640980716 0.0
3.270918412356206 0.4522692359356972 0.0
1.223039611612243 0.5146439900227544 0.0
2.024812732135938 1.00818256045515 0.0
0.5365376864627701 0.5434316309416508 0.0
8.114834335444021 0.4602948767329583 0.0
7.742261962994204 0.4117304941858466 0.0
0.9443382341364558 1.456061359265878 0.0
1.665275621558886 1.201744468407863 0.0
1.89566112584099 0.4397284596316843 0.0
3.691409759982064 0.3560936332572802 0.0
7.368457390036411 0.3792926046732459 0.0
0.5071184951703254 0.9340893429149442 0.0
0.3822273842356539 1.647625881691675 0.0
5.916285335387544 0.2564903116750689 0.0
5.628860531758535 0.2582323053999509 0.0
5.380471017960128 0.2502349014663197 0.0
5.139244585769944 0.2549145445969738 0.0
2.686085237972266 0.8031095648160084 0.0
4.507599040026292 0.263176944655695 0.0
6.983755234374982 0.3380000000001097 0.0
9.720925955181613 0.6635813325201156 0.0
1.288006195687152 0.8759679848503046 0.0
9.20556379558699 0.6923669083350594 0.0
2.319913492084225 0.9512500928262699 0.0
8.73203612228155 0.6151508464420534 0.0
4.868679481352366 0.2526598053940744 0.0
4.10358044398202 0.3012437332986487 0.0
6.602422946953217 0.3126221952225479 0.0
2.534693527909069 0.3583319619586092 0.0
6.193332317503376 0.2894654215336858 0.0
0.8804088217382579 0.3735513844182569 0.0
0.7663303172393539 1.679065267574722 0.0
3.081211528283084 0.6968015573146217 0.0
1.241762689885858 1.521465072418641 0.0
1.573472750763779 0.3374689934575129 0.0
1.475107933015155 1.403918544935278 0.0
0.8212739503602162 1.195790902469637 0.0
4.681049549092561 0.3558177014380842 0.0
9.439519900118443 0.7366884444350511 0.0
2.201393787062887 0.3261463175998884 0.0
2.015369189818184 0.7109460688851087 0.0
8.32727069655695 0.6360373328685593 0.0
8.961488632119996 0.7119124617705204 0.0
9.22773266034565 0.3109430611770705 0.0
0.3000513553073295 1.178778127105867 0.0
1.91985473842554 1.233084801189704 0.0
8.749827252515535 0.3049638092131281 0.0
3.50551132590258 0.5576614504134195 0.0
3.040500962406976 0.290446660105673 0.0
9.72097519930939 0.3037986529514364 0.0
0.3073166349239687 0.3249300260882615 0.0
0.2948185331392187 0.7229775107826154 0.0
1.46029425821417 1.06552904833304 0.0
0.8085718129253527 0.673531272847494 0.0
7.913326191751847 0.5738936378911789 0.0
8.295349499871781 0.2556682497524391 0.0
4.31359646688283 0.3665214152100782 0.0
7.542842082022704 0.5249918217576657 0.0
1.058357552227335 1.116692590939024 0.0
2.214297272750292 1.159898327391242 0.0
2.901187336648686 0.8282146771898153 0.0
3.933498145061447 0.4325241689837319 0.0
7.956006969037984 0.2667411694088205 0.0
7.172393179434975 0.4835114022190097 0.0
1.440243631802057 0.6689433452646625 0.0
3.458541882144431 0.2581755850286561 0.0
5.791617360065465 0.3978542524532168 0.0
5.981529865241493 0.3900667299390458 0.0
1.083462543944253 0.7203994120564634 0.0
1.78518471978951 1.008552691762234 0.0
2.77360122246243 0.2689852172070111 0.0
2.565134389978369 0.9928826788184764 0.0
2.543046005790158 0.6034091352176242 0.0
3.293038780485421 0.6769811703257343 0.0
6.790787388653942 0.4353933509634578 0.0
1.140204059461831 0.2538227257007896 0.0
0.6242104065654487 0.2738473600765566 0.0
6.393430278703709 0.3766405270445946 0.0
8.533059390324546 0.6950580701614406 0.0
0.9961263693263854 1.612128843772703 0.0
1.697598586607002 0.5781950992180334 0.0
8.087930458724863 0.6517815437732153 0.0
0.2748906317360928 1.770749713716887 0.0
0.5785110002099415 1.757022387413085 0.0
5.550004842562332 0.3852675728674634 0.0
4.948161884155141 0.3480305424737933 0.0
1.741244734175577 1.381979611033466 0.0
5.312408927381063 0.3621256994047111 0.0
0.2492139438157334 1.453132031680879 0.0
7.597720022451821 0.2370268512906596 0.0
9.471021754366422 0.2472916581956264 0.0
7.714083843672875 0.600212897672991 0.0
4.520815862079482 0.3946753115680038 0.0
2.47356661122767 0.8007389356831706 0.0
7.325494311403363 0.528948935030723 0.0
7.147005275585743 0.2709670165999667 0.0
3.758046446289313 0.5474783841545341 0.0
3.893717059615281 0.1664960777568404 0.0
2.152835534199412 0.8614028741175742 0.0
8.995993312441625 0.1933410497113667 0.0
1.077676137392001 1.368204555688504 0.0
0.2429906229817933 0.9816066505657851 0.0
0.6261765586985547 1.180540007244081 0.0
9.81151801018651 0.816223424030724 0.0
0.6725442903064565 0.8425384371773644 0.0
1.74584086891446 0.2617492458514414 0.0
0.7667820686164357 1.440842670056678 0.0
8.539133693395232 0.1910926418035274 0.0
5.129145653242096 0.3632579123815574 0.0
6.816538849831732 0.2013284992826486 0.0
2.108503954619862 0.5359795950847274 0.0
6.933669557130528 0.4980836483776163 0.0
3.071406705674529 0.4919421055852253 0.0
2.001240035874449 0.2292738462614773 0.0
4.782473531509697 0.4061213127162872 0.0
0.5734126310178208 1.536352720889636 0.0
9.796714529589472 0.4898048068674991 0.0
5.678359041645315 0.373719883316694 0.0
5.427661572827738 0.3646059266294788 0.0
2.075214597532947 1.226969224366912 0.0
3.251521478555126 0.2637671977660283 0.0
2.722180837291864 0.9710783334409533 0.0
9.333262390342384 0.8479609887828539 0.0
1.367251332770493 0.2041553944563636 0.0
1.870721433742522 0.7905989208842599 0.0
1.387906762913351 1.555741687747287 0.0
9.559918612869 0.8444052974080497 0.0
9.286795039366257 0.4698254290795815 0.0
1.507117480770146 1.225129516597721 0.0
[...]
POINT_DATA 600

VECTORS Velocity float
0.0000000000000000 0.0000000000000000 0.0
0.0000000000000000 0.0000000000000000 0.0
0.0000000000000000 0.0000000000000000 0.0
0.0000000000000000 0.0000000000000000 0.0
0.0000000000000000 0.0000000000000000 0.0
0.0000000000000000 0.0000000000000000 0.0
0.0000000000000000 0.0000000000000000 0.0
0.0000000000000000 0.0000000000000000 0.0
0.0000000000000000 0.0000000000000000 0.0
0.0000000000000000 0.0000000000000000 0.0
0.0000000000000000 0.0000000000000000 0.0
0.0000000000000000 0.0000000000000000 0.0
0.0000000000000000 0.0000000000000000 0.0
0.0000000000000000 0.0000000000000000 0.0
0.0000000000000000 0.0000000000000000 0.0
0.0000000000000000 0.0000000000000000 0.0
0.0000000000000000 0.0000000000000000 0.0
0.0000000000000000 0.0000000000000000 0.0
0.0000000000000000 0.0000000000000000 0.0
0.0000000000000000 0.0000000000000000 0.0
0.0000000000000000 0.0000000000000000 0.0
0.0000000000000000 0.0000000000000000 0.0
0.0000000000000000 0.0000000000000000 0.0
0.0000000000000000 0.0000000000000000 0.0
0.0000000000000000 0.0000000000000000 0.0
0.0000000000000000 0.0000000000000000 0.0
0.0000000000000000 0.0000000000000000 0.0
0.0000000000000000 0.0000000000000000 0.0
0.0000000000000000 0.0000000000000000 0.0
0.0000000000000000 0.0000000000000000 0.0
0.0000000000000000 0.0000000000000000 0.0
0.0000000000000000 0.0000000000000000 0.0
0.0000000000000000 0.0000000000000000 0.0
0.0000000000000000 0.0000000000000000 0.0
0.0000000000000000 0.0000000000000000 0.0
0.0000000000000000 0.0000000000000000 0.0
0.0000000000000000 0.0000000000000000 0.0
0.0000000000000000 0.0000000000000000 0.0
0.0000000000000000 0.0000000000000000 0.0
0.0000000000000000 0.0000000000000000 0.0
0.0000000000000000 0.0000000000000000 0.0
0.0000000000000000 0.0000000000000000 0.0
0.8245348865938660 -0.1313106909664208 0.0
0.0000000000000000 0.0000000000000000 0.0
0.0000000000000000 0.0000000000000000 0.0
0.0000000000000000 0.0000000000000000 0.0
0.0000000000000000 0.0000000000000000 0.0
0.0000000000000000 0.0000000000000000 0.0
0.0000000000000000 0.0000000000000000 0.0
0.0000000000000000 0.0000000000000000 0.0
0.0000000000000000 0.0000000000000000 0.0
0.0000000000000000 0.0000000000000000 0.0
0.0000000000000000 0.0000000000000000 0.0
0.0000000000000000 0.0000000000000000 0.0
0.0000000000000000 0.0000000000000000 0.0
0.0000000000000000 0.0000000000000000 0.0
0.0000000000000000 0.0000000000000000 0.0
0.0000000000000000 0.0000000000000000 0.0
0.0000000000000000 0.0000000000000000 0.0
0.0000000000000000 0.0000000000000000 0.0
0.0000000000000000 0.0000000000000000 0.0
0.0000000000000000 0.0000000000000000 0.0
0.0000000000000000 0.0000000000000000 0.0
0.0000000000000000 0.0000000000000000 0.0
0.0000000000000000 0.0000000000000000 0.0
0.0000000000000000 0.0000000000000000 0.0
0.0000000000000000 0.0000000000000000 0.0
0.0000000000000000 0.0000000000000000 0.0
0.0000000000000000 0.0000000000000000 0.0
0.0000000000000000 0.0000000000000000 0.0
0.0000000000000000 0.0000000000000000 0.0
0.0000000000000000 0.0000000000000000 0.0
0.0000000000000000 0.0000000000000000 0.0
0.0000000000000000 0.0000000000000000 0.0
0.0000000000000000 0.0000000000000000 0.0
0.0000000000000000 0.0000000000000000 0.0
0.0000000000000000 0.0000000000000000 0.0
0.0000000000000000 0.0000000000000000 0.0
0.0000000000000000 0.0000000000000000 0.0
0.0000000000000000 0.0000000000000000 0.0
0.0000000000000000 0.0000000000000000 0.0
0.0000000000000000 0.0000000000000000 0.0
0.0000000000000000 0.0000000000000000 0.0
0.0000000000000000 0.0000000000000000 0.0
0.0000000000000000 0.0000000000000000 0.0
0.0000000000000000 0.0000000000000000 0.0
0.0000000000000000 0.0000000000000000 0.0
0.0000000000000000 0.0000000000000000 0.0
0.0000000000000000 0.0000000000000000 0.0
1.0000000000000000 0.0000000000000000 0.0
1.0000000000000000 0.0000000000000000 0.0
1.0000000000000000 0.0000000000000000 0.0
1.0000000000000000 0.0000000000000000 0.0
1.0000000000000000 0.0000000000000000 0.0
1.0000000000000000 0.0000000000000000 0.0
1.0000000000000000 0.0000000000000000 0.0
1.0000000000000000 0.0000000000000000 0.0
1.0000000000000000 0.0000000000000000 0.0
0.0000000000000000 0.0000000000000000 0.0
0.0000000000000000 0.0000000000000000 0.0
0.0000000000000000 0.0000000000000000 0.0
0.0000000000000000 0.0000000000000000 0.0
0.0000000000000000 0.0000000000000000 0.0
0.0000000000000000 0.0000000000000000 0.0
0.0000000000000000 0.0000000000000000 0.0
0.0000000000000000 0.0000000000000000 0.0
0.0000000000000000 0.0000000000000000 0.0
0.0000000000000000 0.0000000000000000 0.0
0.0000000000000000 0.0000000000000000 0.0
0.0000000000000000 0.0000000000000000 0.0
0.0000000000000000 0.0000000000000000 0.0
0.0000000000000000 0.0000000000000000 0.0
0.0000000000000000 0.0000000000000000 0.0
0.0000000000000000 0.0000000000000000 0.0
0.0000000000000000 0.0000000000000000 0.0
0.0000000000000000 0.0000000000000000 0.0
0.0000000000000000 0.0000000000000000 0.0
0.0000000000000000 0.0000000000000000 0.0
0.0000000000000000 0.0000000000000000 0.0
0.0000000000000000 0.0000000000000000 0.0
0.0000000000000000 0.0000000000000000 0.0
0.0000000000000000 0.0000000000000000 0.0
0.0000000000000000 0.0000000000000000 0.0
0.0000000000000000 0.0000000000000000 0.0
0.0000000000000000 0.0000000000000000 0.0
0.0000000000000000 0.0000000000000000 0.0
0.0000000000000000 0.0000000000000000 0.0
0.0000000000000000 0.0000000000000000 0.0
0.0000000000000000 0.0000000000000000 0.0
0.0000000000000000 0.0000000000000000 0.0
0.0000000000000000 0.0000000000000000 0.0
0.0000000000000000 0.0000000000000000 0.0
0.0000000000000000 0.0000000000000000 0.0
0.0000000000000000 0.0000000000000000 0.0
0.0000000000000000 0.0000000000000000 0.0
0.0000000000000000 0.0000000000000000 0.0
0.0000000000000000 0.0000000000000000 0.0
0.0000000000000000 0.0000000000000000 0.0
0.0000000000000000 0.0000000000000000 0.0
0.0000000000000000 0.0000000000000000 0.0
0.0000000000000000 0.0000000000000000 0.0
0.0000000000000000 0.0000000000000000 0.0
0.0000000000000000 0.0000000000000000 0.0
0.0000000000000000 0.0000000000000000 0.0
0.0000000000000000 0.0000000000000000 0.0
0.0000000000000000 0.0000000000000000 0.0
0.0000000000000000 0.0000000000000000 0.0
1.0710901429673922 -0.4619051866068650 0.0
0.9667102875544222 -0.1945536131248923 0.0
0.9837435913025407 -0.0287634298865690 0.0
1.0704218626680937 0.3845537901667820 0.0
1.3298306582190385 0.0031618482789037 0.0
1.4100711357076816 -0.0812349186728714 0.0
1.4380898211410900 -0.1714757062791726 0.0
1.2320264576936957 -0.1006909577898048 0.0
1.3280008717479481 -0.0823571715058685 0.0
1.5187498417017373 -0.1129929444954827 0.0
1.5823463732648471 -0.0286647123922301 0.0
1.5289095791785077 0.0193124409458644 0.0
1.5824002560164712 0.0953821447989929 0.0
1.5086547405409012 -0.1201578520244128 0.0
1.2018144537508315 0.0010939760032925 0.0
1.3389095453863815 -0.0995024436795317 0.0
1.2320682971681447 0.2196411829375191 0.0
1.5827430357766272 0.0713063309705257 0.0
1.5614146338331192 0.0105453627452301 0.0
1.1719430840913136 -0.0515673147325084 0.0
1.2676383032681815 -0.0295760398696990 0.0
1.1642078136376262 -0.0504495809318042 0.0
1.5279066800782497 -0.0560418320506161 0.0
1.5807084127131021 0.0539989818703834 0.0
1.1929141113511181 0.0886784414095165 0.0
1.1486418869184440 -0.2346375065699658 0.0
1.4962196380743931 0.0149944554649666 0.0
1.4963345319871468 -0.0179608636450802 0.0
1.5258319204441357 0.0354978884742754 0.0
1.5477854500791350 0.0132806225342769 0.0
1.3234381049871839 -0.1195054692005488 0.0
1.4874383899793819 0.0094979150049016 0.0
1.6542212921836823 0.0253809620299655 0.0
1.3571162248769830 0.1306074948532583 0.0
1.3973019312493302 -0.0420776535447463 0.0
1.3798454119529062 -0.0476274846088750 0.0
1.3267005825455369 -0.1443433464075448 0.0
1.5071573298939711 0.0926899515750541 0.0
1.5122142255790589 0.0020990903370982 0.0
1.6250507419742695 -0.1060516691589128 0.0
1.6830155413983194 -0.0383144030871820 0.0
1.2080603570093951 -0.0909085143065035 0.0
1.5894212054552566 -0.0199141828639443 0.0
1.0042278987048789 0.0552686818383566 0.0
0.8898283064425452 0.0293671873767756 0.0
1.3797420694544080 -0.0512299310985563 0.0
0.9103713645589760 0.0212495151349122 0.0
0.8939701265876997 -0.0505927089638876 0.0
1.0178721123187786 0.0389710293677231 0.0
1.3012663923803025 -0.0470706657336382 0.0
1.7999871407101697 -0.1358132820405690 0.0
1.2794478687438566 0.0004233363819901 0.0
0.9972163260475648 -0.0673472917394922 0.0
1.4185864729463487 -0.0995929140373847 0.0
1.3653941618639109 0.0402464495571657 0.0
1.3259206277742437 0.0019500723690138 0.0
1.2210262368998472 -0.0209047100050329 0.0
1.0793944730767959 -0.0603459440556886 0.0
1.0856893658076849 0.0141054344869735 0.0
1.2507056712661684 0.0230058267720455 0.0
1.4495420369445615 -0.0621987970971332 0.0
1.2288774712603046 -0.0287196173740492 0.0
1.2054470652521940 -0.2063549771010834 0.0
1.1300149777798931 0.3338846801493050 0.0
1.0974591270647325 0.1935274621912852 0.0
1.4076088956459261 -0.0702219953908017 0.0
1.2896460832309813 0.0863482606527183 0.0
1.4007040942472000 0.0544948922359102 0.0
1.2315669085046366 0.0213762383577012 0.0
1.7382824854251093 0.0679516103275706 0.0
1.4826094936925591 -0.0093212302722685 0.0
1.3555248301946303 -0.0546611369744188 0.0
0.9352642923961155 0.0057666139275041 0.0
1.1034580310461659 -0.0162740426937160 0.0
1.6048528927319625 -0.1334052026617679 0.0
1.3102854315112968 0.0493990460988135 0.0
1.4473650371102451 0.0712253398550128 0.0
1.3620236994234354 -0.0478441471648428 0.0
1.2424508571483086 -0.0434179473958762 0.0
1.5375962426324672 -0.0423339763966392 0.0
1.6086662135196468 0.0406522690272840 0.0
1.3510438658952981 0.0155328062493524 0.0
1.3907835544630687 -0.0855541813170149 0.0
1.0825692715597919 -0.0894901383729740 0.0
0.9868044979716680 -0.0056488183897067 0.0
1.4936562984638406 -0.1702302868203593 0.0
1.2376509153288817 -0.0983999212841818 0.0
1.5843471230899533 0.0134742569008828 0.0
0.6197860058496025 0.0279839053113431 0.0
0.8839396418115323 0.0956622412640117 0.0
1.6626183699727843 0.0134456634201314 0.0
1.2470115129653931 -0.0068931132408101 0.0
0.8963293383258920 0.0209999873916409 0.0
1.3069644769994577 -0.0911944880093336 0.0
1.1934603512065065 0.0055484990536716 0.0
1.1136024088350451 -0.2758630792290973 0.0
0.8387208653018720 0.0371590096898467 0.0
1.5935337109171308 0.0112511690579788 0.0
1.6638950723842998 -0.0094647949261914 0.0
0.8630661607548709 0.0935714396548979 0.0
1.6070010589553692 0.0560510472181862 0.0
1.0915057706681770 -0.2013820909991024 0.0
1.2223563742746306 0.0328013737527477 0.0
1.1030141516137504 -0.0408970175932905 0.0
1.2310422899330120 0.0152311594815834 0.0
1.6695585369770691 -0.0219555543271145 0.0
1.4292321813538367 -0.2101614136792282 0.0
1.4469049149649633 0.0450093389550458 0.0
1.4486874052362551 0.0884007294738475 0.0
1.3476244383550533 -0.0513093806769744 0.0
0.7458203381124038 -0.0906180193430157 0.0
1.4148766531359354 -0.1491879191498595 0.0
0.6589356142651588 -0.0055927411224155 0.0
1.2473923618535279 -0.0656836439650020 0.0
1.0493392708066613 0.0215953952104308 0.0
1.2441240380331797 -0.0234847453149277 0.0
1.1680649574918907 0.2315904348199841 0.0
1.2674245154260484 0.0902803532109427 0.0
0.7415060362901162 0.0042995996674738 0.0
1.2253498245188048 -0.0754510044153176 0.0
0.7077686473346134 0.0038656366600966 0.0
1.6551885428218835 0.0019405131901957 0.0
1.0152590523367337 0.0772569808505341 0.0
1.3349790714052505 -0.1198080610039542 0.0
1.1379262245380992 0.0013257613553207 0.0
1.4815811278555344 -0.1415035960029648 0.0
0.5774244536282804 -0.0439060622557920 0.0
1.1801101331277724 -0.0784148984942100 0.0
1.1986169826834858 -0.1088594170674684 0.0
1.2846460910541380 -0.1014355085888455 0.0
1.6360103391513010 -0.0139578350193415 0.0
1.6039248824357364 0.0500162644962864 0.0
0.9167759188490626 0.0684507469064144 0.0
1.2416433271976639 -0.0442270286114954 0.0
0.7534997851954255 0.1043844454239852 0.0
0.5949820028075781 -0.0028977632435582 0.0
0.4587580563948336 0.0239517514427216 0.0
1.4047541503398664 -0.0914721142283851 0.0
0.5895367282787372 0.1669036602685937 0.0
0.7021922977199251 -0.0060172551476763 0.0
1.5553323867400617 0.0239454784204915 0.0
1.2940876431629149 -0.0556047908676863 0.0
1.2093110565695604 -0.0396960035681012 0.0
1.5664700475706934 0.0670554570629731 0.0
1.3879682601027392 -0.0671452811063437 0.0
1.5712983757250960 0.0292545321418530 0.0
1.1819678057487275 0.0555716434121950 0.0
1.1171933267152827 -0.2466677732660115 0.0
1.2101273015418050 0.1665768054241167 0.0
1.1086440389523062 0.2322323233071597 0.0
1.0737801924251607 -0.0462926106875028 0.0
1.1845495284587708 0.0253079602916475 0.0
0.9319305698799446 0.0422318190107190 0.0
0.6035959744826209 0.1488991122044456 0.0
0.9917334968503995 -0.0116891460366689 0.0
1.3708417080791824 -0.0375227811804567 0.0
0.7662886508149992 0.0675907249875964 0.0
1.2099119103309841 0.0512195195136030 0.0
1.4154233661861031 -0.0621866395168134 0.0
0.8997574372098948 -0.0179074902773981 0.0
1.2624673040532655 0.0315715951027654 0.0
1.5235724277365486 0.0500949206953865 0.0
1.1951082317738069 -0.1727886817488131 0.0
1.3074172012261072 -0.1033479733909287 0.0
0.5468616032650164 0.1449870377867360 0.0
0.5461372731863341 0.1161705606870815 0.0
0.8401194642060892 -0.0134402659529119 0.0
1.4668837442583356 -0.0826369549170699 0.0
1.4127919593530420 -0.0772469358369354 0.0
0.5758018887829506 0.1666805535553111 0.0
0.7021550932780256 -0.0557720659161916 0.0
1.1212233014779556 0.0209989890860180 0.0
1.4530676593695018 -0.1063492489191227 0.0
0.9842451358787268 -0.0133091181251312 0.0
1.2841114829629408 0.0107391780068716 0.0
1.3675769909697499 -0.0807021494719240 0.0
0.9646928854006923 0.0082623339285790 0.0
0.8741200478498303 0.0707897625670796 0.0
1.3264496334385756 -0.0009455637682323 0.0
0.7702826678624991 -0.0263059129300258 0.0
1.5632365749887174 -0.0255932686403056 0.0
0.7668429562117380 0.0218693115843896 0.0
0.7735264682620820 -0.0295405050283961 0.0
1.2891885791207112 -0.0763203450114349 0.0
1.3667486937699291 -0.0121517246730327 0.0
0.9911002997852906 0.0108742799219699 0.0
0.6189998086288908 0.1877868015266037 0.0
0.9119770601884641 -0.0047187610498037 0.0
1.1695910577718829 -0.0482737290686505 0.0
0.8180459580073658 0.0938965754209958 0.0
1.1801634492126580 0.1352116570890984 0.0
1.1059801723760680 -0.0236233713445883 0.0
0.6809608334041164 0.0183540055652387 0.0
1.5194443033860510 -0.0206526833314218 0.0
0.9053574004522192 -0.0120114611861866 0.0
1.5434580043711268 -0.0249473959411831 0.0
0.4477102394208842 -0.0353207043686664 0.0
1.4380080201785130 -0.1661390606539065 0.0
1.5939667658303771 -0.0125346359499748 0.0
0.5727328693160517 0.1160481389053774 0.0
0.7798132540694240 -0.0246885403335477 0.0
1.5825724573202633 0.0685380230219268 0.0
0.9361581469397143 0.0914226938857389 0.0
1.5606887708479571 0.0564516268100480 0.0
1.0158975146966034 -0.0190050593839756 0.0
0.8011896017591653 -0.0591977816433528 0.0
0.6822302904868812 -0.0319888406009470 0.0
1.0196666342334557 -0.0257106857473987 0.0
1.0028719281661704 0.0297312040099895 0.0
1.4555912034537992 0.0136597969911902 0.0
0.5602342093836817 0.0371712510089310 0.0
0.8812400725989888 -0.0614115423147600 0.0
0.8518286166816118 0.0508973254548824 0.0
1.4236831718445999 0.0790693409056068 0.0
0.8022340969074991 -0.1990911968826751 0.0
0.8296118277718436 -0.0261408796965040 0.0
0.5247753884177985 -0.0485483763563593 0.0
1.0676628172696629 0.0184056832442946 0.0
0.7196862065939107 0.1932325701906553 0.0
0.9026296221074008 0.0436262827909719 0.0
1.2656536541942693 -0.1225053473056976 0.0
0.7642612011129397 -0.0184531378429627 0.0
0.9014292600832233 -0.0017526033371786 0.0
1.0192082005814807 -0.0149401773791842 0.0
0.7921307350975991 -0.0306542786610300 0.0
0.7686890988058356 -0.0448090545019607 0.0
1.4892150759963207 0.0258925700387472 0.0
0.8008871351670502 -0.0318475457007147 0.0
1.0384574275851368 -0.0754841619667718 0.0
0.8395568936927189 0.0547631206434543 0.0
1.2988920997665785 -0.0408842441623665 0.0
0.6357314911304410 -0.0181638040923085 0.0
0.4124098407431120 0.0063991420164819 0.0
1.1795119310442759 -0.0866424970587443 0.0
0.8365237234829229 0.1023360130381373 0.0
0.7950351680422056 -0.0164490150437756 0.0
0.9597946702654198 0.0563403267401220 0.0
1.3197695994995688 -0.0283418718937392 0.0
0.6557557932062446 -0.0207797787458458 0.0
1.2146882371711809 0.1878455608621557 0.0
1.4996273066396104 0.0055398499168575 0.0
0.7108539872303344 -0.0126477647229565 0.0
1.1429104343325105 0.0044088164411031 0.0
1.2659782009383878 -0.0602124059637804 0.0
1.1049353358430929 -0.0490808232481426 0.0
1.4091736850922043 -0.1198364529422593 0.0
0.4813433195965593 0.2080896646871971 0.0
1.7295444306311731 0.0212460589200184 0.0
1.3311048024498464 0.0296565007055977 0.0
0.5606416530030979 0.0508574076293506 0.0
1.4407718928553652 -0.1423428526985582 0.0
1.5073095933543481 -0.0903904737148706 0.0
0.6389360984690807 -0.0072012470728100 0.0
1.0243458555585334 -0.0119615082631730 0.0
0.6729060498050247 -0.0388740090425541 0.0
0.9513709178249823 -0.0773825962083256 0.0
0.7843048053924004 -0.0531777295111145 0.0
0.4120818158147428 0.2114939077976619 0.0
1.1304229439286198 0.2355837674358155 0.0
1.5951693468189247 0.0099454343171331 0.0
0.5852027575197731 0.2178627779972303 0.0
1.5768142840370141 -0.0620186131971133 0.0
1.7458952076715100 0.0981273566518462 0.0
0.5514089394319841 0.2092612598974989 0.0
1.4828583282289631 0.0454205656696904 0.0
1.4124310689918753 -0.1390604308382425 0.0
0.9254817547426860 0.2494358273224226 0.0
1.2903655195272261 -0.0200802784713493 0.0
1.3193876306704193 0.0207278028437070 0.0
0.7802525204337150 0.0898741944466897 0.0
1.3391748835825250 -0.1138799743040040 0.0
0.6977755599208091 -0.0565763227339164 0.0
0.5955726431236962 0.1936319235390420 0.0
0.4165875840269345 0.0219969593793265 0.0
1.2132789817561289 -0.0246943092698745 0.0
0.8847968028882836 -0.2753819021385920 0.0
1.4179812763708679 0.1010322402329024 0.0
1.2961913097102649 -0.1080208179760533 0.0
0.5611039030103595 -0.0117225452866630 0.0
0.5824266414353516 0.0484971168256726 0.0
0.6996464888399753 0.0179958694943392 0.0
1.1476345209052605 0.0065522047472243 0.0
1.2031450536543118 0.2909854376022667 0.0
0.5654659310365395 -0.0335025218081909 0.0
1.1392969534348372 -0.0570385283323800 0.0
0.5931319148047290 0.0406923587101506 0.0
1.5697878231165303 0.0402256499049616 0.0
0.4626167870709715 0.2473663914810509 0.0
0.7432738363980943 -0.1217135041225338 0.0
1.5407313405066216 -0.0447509864471082 0.0
1.2544603945041577 0.0375559555639972 0.0
1.5181194080088487 -0.1371245711444329 0.0
0.6839112332167674 0.0059618170725103 0.0
0.8715650992318384 -0.0341463991690846 0.0
1.4570633492150484 -0.1039999439664486 0.0
1.3858838987450743 -0.0784714476543000 0.0
1.0238754516524660 0.0636145391865754 0.0
1.4489203631428949 0.0372443499368340 0.0
1.3283101247583620 -0.0716245637565963 0.0
1.2680073118411403 0.1439249832091712 0.0
0.8625304326346216 -0.0077128572058992 0.0
0.7438833992455449 -0.0212883976405116 0.0
0.6759203201699630 -0.0462609462551846 0.0
1.3176935032858719 -0.0700870555478565 0.0
1.3199356798372008 -0.0628530984798471 0.0
1.1343633552782271 0.1163325343799693 0.0
0.3459997912990383 0.0304121691602618 0.0
1.4375872503430160 -0.0933873116303217 0.0
0.3092640377064704 0.1117498702696825 0.0
0.6909652991938234 0.1212471251457240 0.0
1.0768557089992568 0.0336467832795214 0.0
0.5385532475124643 -0.1146476579834013 0.0
1.1465684969259582 -0.3154639928712962 0.0
1.3773991608322655 -0.0725659462784502 0.0
1.6094589113641284 -0.0186060634406866 0.0
0.7313240256527013 0.1117629913648094 0.0
1.5216282522290969 -0.0617349544594852 0.0
0.9306393973904875 -0.0331228188031671 0.0
1.3875111138511995 -0.0610001650309874 0.0
0.9327250357129031 -0.0256160426481477 0.0
0.4985843974490090 0.2064618950494142 0.0
0.9085674233960713 -0.0551524027627457 0.0
1.0266560195675034 -0.0642529726268554 0.0
1.5675831208799698 -0.0463141349032536 0.0