# vtk DataFile Version 3.0
LucasCarvalhoTCC Results
ASCII

DATASET POLYDATA
FIELD FieldData 1
TIME 1 1 double
1.0

POINTS 216 float
0.0 0.0 0.0
8.0 0.0 0.0
8.0 1.0 0.0
0.0 1.0 0.0
0.2499999999995252 0.0 0.0
0.4999999999989648 0.0 0.0
0.7499999999985776 0.0 0.0
0.9999999999981904 0.0 0.0
1.249999999997467 0.0 0.0
1.499999999996743 0.0 0.0
1.74999999999602 0.0 0.0
1.999999999995296 0.0 0.0
2.249999999994567 0.0 0.0
2.499999999993839 0.0 0.0
2.74999999999311 0.0 0.0
2.999999999992381 0.0 0.0
3.249999999991673 0.0 0.0
3.499999999990966 0.0 0.0
3.749999999990259 0.0 0.0
3.999999999989552 0.0 0.0
4.249999999990189 0.0 0.0
4.499999999990826 0.0 0.0
4.749999999991463 0.0 0.0
4.9999999999921 0.0 0.0
5.249999999992758 0.0 0.0
5.499999999993416 0.0 0.0
5.749999999994074 0.0 0.0
5.999999999994733 0.0 0.0
6.249999999995391 0.0 0.0
6.499999999996049 0.0 0.0
6.749999999996708 0.0 0.0
6.999999999997367 0.0 0.0
7.249999999998025 0.0 0.0
7.499999999998683 0.0 0.0
7.749999999999341 0.0 0.0
8.0 0.1249999999997794 0.0
8.0 0.2499999999994194 0.0
8.0 0.3749999999990567 0.0
8.0 0.499999999998694 0.0
8.0 0.6249999999990205 0.0
8.0 0.749999999999347 0.0
8.0 0.8749999999996735 0.0
7.749999999999172 1.0 0.0
7.499999999998548 1.0 0.0
7.249999999997237 1.0 0.0
6.999999999996009 1.0 0.0
6.749999999997435 1.0 0.0
6.499999999999012 1.0 0.0
6.250000000000828 1.0 0.0
6.000000000002772 1.0 0.0
5.750000000004679 1.0 0.0
5.500000000006812 1.0 0.0
5.250000000008232 1.0 0.0
5.00000000000971 1.0 0.0
4.750000000011667 1.0 0.0
4.500000000012948 1.0 0.0
4.250000000014756 1.0 0.0
4.000000000016473 1.0 0.0
3.750000000015476 1.0 0.0
3.500000000014478 1.0 0.0
3.250000000013482 1.0 0.0
3.000000000012484 1.0 0.0
2.750000000011444 1.0 0.0
2.500000000010404 1.0 0.0
2.250000000009363 1.0 0.0
2.000000000008323 1.0 0.0
1.750000000007282 1.0 0.0
1.500000000006242 1.0 0.0
1.250000000005202 1.0 0.0
1.000000000004162 1.0 0.0
0.7500000000031211 1.0 0.0
0.500000000002081 1.0 0.0
0.2500000000010401 1.0 0.0
0.0 0.8750000000003563 0.0
0.0 0.7500000000009891 0.0
0.0 0.6250000000015759 0.0
0.0 0.5000000000020591 0.0
0.0 0.3750000000015444 0.0
0.0 0.2500000000010296 0.0
0.0 0.1250000000005148 0.0
0.3910246137239545 0.4785681395465928 0.0
7.53914391956527 0.648555314537079 0.0
6.697171743051135 0.5204629579973435 0.0
5.840007149740467 0.503292199752354 0.0
4.939312731549381 0.5178007136480823 0.0
1.040546722495693 0.4877455980754917 0.0
1.802772074575687 0.4478904632735258 0.0
4.145484511891536 0.4673408042110245 0.0
2.55039909439232 0.5576796652441677 0.0
3.379056567723863 0.4485814053708072 0.0
5.418405980210647 0.5072703496132644 0.0
7.158885346517052 0.4667836995628466 0.0
0.2269212928830245 0.6455072468778152 0.0
7.76244757365706 0.326001307723653 0.0
3.662225615751983 0.3990937675777899 0.0
6.277055011032483 0.6853351938078877 0.0
1.530262529739572 0.3685519085141686 0.0
4.479913954665497 0.6084581723047312 0.0
2.941717642277788 0.57988698431125 0.0
2.28955322395504 0.4255388558831937 0.0
0.2261262178612923 0.3674943172169898 0.0
7.70962043802708 0.6512078208661811 0.0
7.368935643040293 0.4531289511659004 0.0
0.8019369756693521 0.4827718170703675 0.0
6.955510097883036 0.7435489433110507 0.0
4.651580507832601 0.2703430715680237 0.0
3.675625985458994 0.7289048029897308 0.0
2.199515490449924 0.7396028401320247 0.0
1.486536666330893 0.6140698021333681 0.0
6.3979189002672 0.2960084181355189 0.0
2.870769348727065 0.3034654749606635 0.0
5.586866851162956 0.3236214056310252 0.0
5.612401953316742 0.6744536919995175 0.0
5.194027798465422 0.7561159826756723 0.0
7.359701079567855 0.6685114941169773 0.0
6.953162165181516 0.2441673340041024 0.0
3.98325704204641 0.7288972043393613 0.0
4.324001377764958 0.191636988300369 0.0
2.445049357842276 0.8099274277115488 0.0
1.69380611314464 0.75463126695403 0.0
6.042933758711903 0.2241852421027299 0.0
3.197072288828737 0.2765792688376843 0.0
0.137576495572687 0.7900107470106505 0.0
0.127739988889454 0.5806330464611048 0.0
7.885498123694505 0.372340253666263 0.0
7.858866549753166 0.1950266868159899 0.0
0.5589911436020137 0.7334651236295585 0.0
3.935214396411122 0.3020052594332098 0.0
3.510907825727131 0.2883361253288013 0.0
3.228107260186737 0.7144759051407986 0.0
6.501558056709388 0.7911622502715447 0.0
6.02377602185898 0.7736381649435943 0.0
4.736103467890267 0.7830823733382981 0.0
1.262381101760004 0.2208342029042322 0.0
2.755750367684303 0.6989229229262444 0.0
4.29062073823867 0.6964689585841374 0.0
1.699256890934935 0.2761848519739697 0.0
2.010822278611907 0.26834870410138 0.0
2.470657027492991 0.3567775456870889 0.0
0.5510055389101783 0.2365690830467344 0.0
1.026164283771055 0.746686764547015 0.0
4.945518112009806 0.2586569052280712 0.0
0.1160462365812523 0.2090181563995984 0.0
7.886299232226575 0.8023006450446057 0.0
5.357638603668678 0.7524779860506793 0.0
5.377144098391724 0.2015447343221755 0.0
7.192073919628286 0.2313905840569542 0.0
6.705349656357036 0.2650188432208067 0.0
7.529785942266567 0.82512851823229 0.0
1.897543989771046 0.6689591608765975 0.0
5.816084485671252 0.2752303005407745 0.0
0.1237235785058397 0.4848872513558236 0.0
7.866984189021422 0.5012252376430004 0.0
7.915419241811138 0.2751500327309471 0.0
0.3046064491966939 0.2572505500592678 0.0
0.08539542922144114 0.7090422244707196 0.0
7.175996001961128 0.7102877411233709 0.0
0.5753095483149296 0.4810423878776384 0.0
1.027064171700885 0.2368362702490732 0.0
2.653727856867077 0.3095593546299534 0.0
3.425610763247343 0.7542798749867493 0.0
7.614551932571644 0.2602539296610829 0.0
0.1249729812712466 0.3614885982619856 0.0
7.863824475022957 0.6441971939732674 0.0
6.723379373901563 0.7642447343496775 0.0
6.940764793564027 0.4928534615425234 0.0
0.2560185569121513 0.4729594561028887 0.0
7.722294976873681 0.48385336866547 0.0
4.967105799107035 0.7643990098740633 0.0
5.811277411222957 0.7425242973194404 0.0
1.267163338946875 0.7613295813105786 0.0
4.403199098355184 0.3929495880679003 0.0
3.815431848252936 0.5306254930535086 0.0
6.108690925100042 0.5016622581864725 0.0
2.371412374268583 0.6269089442438108 0.0
1.620854584178171 0.5489780160441956 0.0
3.086254421672077 0.3049884207678082 0.0
5.680091477473768 0.5031366029835969 0.0
5.17063118497355 0.5013427726560571 0.0
3.529321772876483 0.5983055517302257 0.0
4.705082441669169 0.5499294254059581 0.0
2.098949188862297 0.5386768858338743 0.0
6.467794763779056 0.5764622442263633 0.0
1.318859898759651 0.4923514173963943 0.0
2.727193997274759 0.540451569752292 0.0
3.770135401310095 0.1917648820378576 0.0
2.882232103583595 0.7732507789722008 0.0
6.353907591503188 0.814223217562665 0.0
4.517209011776481 0.8091660069719216 0.0
1.4335536138317 0.1684637873158156 0.0
2.244004393601726 0.219457609644351 0.0
0.7835699186433129 0.7414425378324909 0.0
7.558909409533214 0.4619361243935323 0.0
3.40582320307748 0.1936454696687283 0.0
4.172551569975341 0.7944802730407288 0.0
4.170310148714724 0.2245834336793358 0.0
2.625031818590097 0.7554561611285084 0.0
7.387724738521017 0.8166400711702507 0.0
1.817272022200262 0.1883745080151065 0.0
7.721060619970231 0.8212384148024636 0.0
0.3626721729085131 0.7044770201946802 0.0
3.792158204885129 0.8265708459113903 0.0
6.220704494036842 0.1712776726985595 0.0
1.48701750309823 0.7754119481844364 0.0
2.295304761094709 0.8568541176965724 0.0
4.483058002014184 0.1473339596992096 0.0
0.7835743159650944 0.2378093854506922 0.0
6.172986092818971 0.803583172360158 0.0
4.364173515692331 0.824958109347546 0.0
1.624241356915954 0.1606010400582267 0.0
2.401490515407582 0.206684047783987 0.0
3.599403636260883 0.1715286481430773 0.0
3.020947971830303 0.8409726459612676 0.0
7.420107560539895 0.2321161977997849 0.0
5.185175477866706 0.2430807149659237 0.0
5.573232130244429 0.2031205481786325 0.0

POLYGONS 350 1400
3 30 115 147
3 49 207 48
3 201 116 57
3 116 194 57
3 194 116 87
3 201 172 116
3 116 172 87
3 33 213 32
3 213 33 161
3 120 202 173
3 202 120 27
3 202 109 173
3 82 109 147
3 28 202 27
3 165 82 147
3 115 165 147
3 165 115 91
3 31 115 30
3 195 171 87
3 197 43 44
3 43 197 148
3 54 55 188
3 194 56 57
3 94 172 179
3 172 106 179
3 106 172 201
3 172 127 87
3 127 195 87
3 127 94 185
3 94 127 172
3 127 185 19
3 195 127 19
3 33 34 161
3 213 146 32
3 146 31 32
3 31 146 115
3 115 146 91
3 146 102 91
3 102 146 213
3 83 120 173
3 120 150 27
3 83 150 120
3 29 109 202
3 28 29 202
3 29 30 147
3 109 29 147
3 165 104 82
3 21 22 205
3 20 195 19
3 20 21 205
3 171 117 205
3 117 171 195
3 117 20 205
3 20 117 195
3 131 207 49
3 169 131 49
3 131 83 173
3 83 131 169
3 42 43 148
3 54 168 53
3 24 214 23
3 56 208 55
3 55 208 188
3 208 56 194
3 208 97 188
3 162 142 100
3 142 162 78
3 39 152 38
3 152 124 38
3 124 93 153
3 124 152 167
3 93 124 167
3 81 101 148
3 197 81 148
3 152 163 167
3 163 101 167
3 39 163 152
3 163 39 40
3 125 34 1
3 125 36 153
3 93 125 153
3 34 125 161
3 125 93 161
3 150 26 27
3 47 130 46
3 207 187 48
3 187 47 48
3 47 187 130
3 104 45 46
3 156 197 44
3 45 156 44
3 156 45 104
3 156 165 91
3 156 104 165
3 130 164 46
3 164 104 46
3 104 164 82
3 141 22 23
3 214 141 23
3 141 214 178
3 214 90 178
3 177 83 169
3 112 177 169
3 150 177 111
3 177 150 83
3 177 90 111
3 90 177 112
3 132 54 188
3 132 168 54
3 97 132 188
3 145 24 25
3 24 145 214
3 90 145 111
3 145 90 214
3 185 18 19
3 94 211 185
3 18 211 17
3 211 18 185
3 135 208 194
3 208 135 97
3 135 194 87
3 171 135 87
3 97 135 171
3 79 142 78
3 162 77 78
3 73 74 122
3 73 72 3
3 72 73 122
3 77 151 76
3 151 77 162
3 151 162 100
3 126 80 157
3 124 37 38
3 36 37 153
3 37 124 153
3 81 114 102
3 114 81 197
3 156 114 197
3 102 114 91
3 114 156 91
3 101 192 167
3 81 192 101
3 192 81 102
3 192 93 167
3 93 192 161
3 192 213 161
3 192 102 213
3 41 143 40
3 143 163 40
3 143 41 2
3 42 143 2
3 35 125 1
3 125 35 36
3 26 215 25
3 145 215 111
3 215 145 25
3 215 150 111
3 215 26 150
3 95 187 207
3 95 131 173
3 131 95 207
3 168 84 178
3 84 141 178
3 132 84 168
3 22 105 205
3 141 105 22
3 105 171 205
3 84 105 141
3 168 113 53
3 113 168 178
3 50 169 49
3 50 112 169
3 50 51 112
3 128 211 94
3 58 106 201
3 58 59 106
3 58 201 57
3 106 160 179
3 59 160 106
3 4 79 0
3 79 4 142
3 151 123 76
3 166 80 92
3 123 166 92
3 166 123 151
3 166 151 100
3 80 166 100
3 71 126 70
3 200 72 122
3 92 200 122
3 200 71 72
3 71 200 126
3 80 200 92
3 126 200 80
3 199 143 42
3 101 199 148
3 199 42 148
3 163 199 101
3 143 199 163
3 109 182 173
3 182 95 173
3 182 109 82
3 164 182 82
3 182 164 130
3 187 182 130
3 95 182 187
3 180 132 97
3 180 84 132
3 180 105 84
3 180 97 171
3 105 180 171
3 113 52 53
3 90 144 178
3 144 113 178
3 144 90 112
3 51 144 112
3 52 144 51
3 144 52 113
3 89 94 179
3 89 128 94
3 160 89 179
3 66 67 119
3 149 66 119
3 66 149 65
3 9 209 189
3 8 9 189
3 12 190 11
3 210 159 138
3 159 210 13
3 210 12 13
3 12 210 190
3 174 99 138
3 99 174 181
3 99 210 138
3 210 99 190
3 14 159 13
3 60 160 59
3 62 63 196
3 174 107 181
3 65 107 64
3 107 149 181
3 149 107 65
3 142 154 100
3 4 154 142
3 154 4 5
3 154 80 100
3 206 6 7
3 158 206 7
3 8 158 7
3 123 75 76
3 16 121 15
3 110 14 15
3 14 110 159
3 110 184 159
3 110 98 184
3 10 209 9
3 190 137 11
3 137 99 181
3 99 137 190
3 209 96 189
3 67 203 119
3 126 191 70
3 191 69 70
3 69 191 140
3 191 126 157
3 88 184 196
3 88 174 138
3 159 88 138
3 184 88 159
3 63 118 196
3 118 88 196
3 88 118 174
3 80 139 157
3 154 139 80
3 139 206 157
3 139 154 5
3 6 139 5
3 139 6 206
3 96 133 189
3 133 96 183
3 133 8 189
3 133 158 8
3 75 155 74
3 74 155 122
3 155 75 123
3 155 92 122
3 155 123 92
3 60 129 160
3 129 89 160
3 184 134 196
3 98 134 184
3 134 62 196
3 193 16 17
3 211 193 17
3 128 193 211
3 16 193 121
3 89 193 128
3 121 193 89
3 121 176 15
3 176 110 15
3 110 176 98
3 176 129 98
3 176 121 89
3 129 176 89
3 198 10 11
3 137 198 11
3 10 198 209
3 149 86 181
3 86 137 181
3 86 198 137
3 68 203 67
3 68 69 140
3 203 108 119
3 96 108 183
3 206 103 157
3 103 191 157
3 158 103 206
3 191 103 140
3 204 63 64
3 204 118 63
3 107 204 64
3 204 107 174
3 118 204 174
3 212 60 61
3 212 129 60
3 129 212 98
3 198 136 209
3 86 136 198
3 136 96 209
3 170 68 140
3 68 170 203
3 108 170 183
3 170 108 203
3 175 108 96
3 136 175 96
3 175 136 86
3 108 175 119
3 175 149 119
3 175 86 149
3 103 85 140
3 85 103 158
3 170 85 183
3 85 170 140
3 85 133 183
3 133 85 158
3 186 134 98
3 212 186 98
3 134 186 62
3 62 186 61
3 186 212 61

POINT_DATA 216

SCALARS Velocity_X float 1

LOOKUP_TABLE Velocity_X
0.0
0.996879361273792
0.0
0.0
0.0
0.0
0.0
0.0
0.0
0.0
0.0
0.0
0.0
0.0
0.0
0.0
0.0
0.0
0.0
0.0
0.0
0.0
0.0
0.0
0.0
0.0
0.0
0.0
0.0
0.0
0.0
0.0
0.0
0.0
0.0
1.001494943127931
1.0000251364742743
0.9994124600839646
1.0009985525466338
0.9994928120844593
1.0006752255647542
0.9999458151159544
0.0
0.0
0.0
0.0
0.0
0.0
0.0
0.0
0.0
0.0
0.0
0.0
0.0
0.0
0.0
0.0
0.0
0.0
0.0
0.0
0.0
0.0
0.0
0.0
0.0
0.0
0.0
0.0
0.0
0.0
0.0
1.0
1.0
1.0
1.0
1.0
1.0
1.0
0.9938446660840807
0.9999669811910368
0.997995088278624
0.9966436805388604
1.0017347828410026
0.9982287934800471
1.0036266390616706
1.0013370541749202
1.001585288713373
0.9989266518185416
0.9996600991428904
0.9999772382883972
0.9623214991898599
1.0013012486185258
1.0009019592113935
0.9982343598083651
1.000399652609755
0.9998901085631186
0.9991120826040487
1.0018122265736646
0.9777120567348409
1.0005748064987476
1.0006317769269335
0.996887955891078
1.000292639024052
0.9965693062912455
1.0051648665326294
1.0047871785870695
1.001497024215031
0.9984099360491818
0.9956162907144135
0.9994483486720261
1.0018349504591195
1.004032577465189
0.9992514036682274
0.999856240677878
1.0041713129633907
0.993713919658531
1.005080274921852
1.0049428324323277
0.9975062862523154
0.9940747806630309
1.0140535584889725
0.9877507062214255
1.000945128814566
0.9985578648701052
1.0034868323275972
0.996201539311063
0.9963011465374604
1.0031752093384774
1.0024704183812492
1.0015400281350797
1.0051845327921929
0.9949695684860063
1.0042026892113907
1.0014526487720208
0.9986621890783974
0.9968297211637224
0.9992744590822578
0.9950554494043106
1.0046011559067647
0.9953774069492393
1.002931762055077
1.0003138446286066
1.0024202632617558
0.9975162361077775
1.0001210873135462
0.9991792753218137
1.0000856729818715
1.0042336579201399
0.9980841961067435
1.0013999730810756
1.0021411222707264
1.0000679045245053
0.9956473831108192
0.9504302871431051
0.9998334621513318
0.996916302796961
0.9940193914610852
0.9953917572223795
1.005905657525427
0.9993818825395401
0.9731120421022862
1.0013263741159282
0.9997581001525044
0.9991273156974692
0.9931654322051053
1.0015911499039833
1.0053695342702933
1.0031971964445414
1.003554730056428
0.9977204552522021
1.003912389043494
0.9979857721487639
1.0029902488744582
1.0024747169263941
0.9949746597655698
0.997081300909289
1.0016958056452387
1.001276086001638
0.998588521092382
1.004069860395884
0.9973464377248117
1.002393326592435
0.9984599594680594
0.9911018272959918
1.0072152542905506
1.0034457140767563
1.0082117114263178
0.9915942057538324
0.9921909047758171
1.0036888221089992
1.0014334797559181
0.9931834480430165
1.006497750716224
0.9927857581081381
1.0052365240512537
1.0001736532022296
0.9918366545875161
1.0003480757813967
1.0022255584695157
1.0057437646592173
0.9973125796208092
1.005879210963015
1.0058411682595494
0.9928800903301783
0.9960071498834557
1.0067816728845793
1.009083449630232
0.9914797786940284
0.9921121821177165
0.9922246125982465
1.0096588452007107
1.0000053305273608
0.9959745442760517
0.9978431563279591

SCALARS Velocity_Y float 1

LOOKUP_TABLE Velocity_Y
0.0
-0.001736166141209369
0.0
0.0
0.0
0.0
0.0
0.0
0.0
0.0
0.0
0.0
0.0
0.0
0.0
0.0
0.0
0.0
0.0
0.0
0.0
0.0
0.0
0.0
0.0
0.0
0.0
0.0
0.0
0.0
0.0
0.0
0.0
0.0
0.0
-0.007112837730149983
-0.005634248485016879
-0.006673379650073374
-0.0038062651050180607
-0.0013328444986169898
0.0009528458767612099
0.0024387028824173454
0.0
0.0
0.0
0.0
0.0
0.0
0.0
0.0
0.0
0.0
0.0
0.0
0.0
0.0
0.0
0.0
0.0
0.0
0.0
0.0
0.0
0.0
0.0
0.0
0.0
0.0
0.0
0.0
0.0
0.0
0.0
0.0
0.0
0.0
0.0
0.0
0.0
0.0
0.004705669199664076
-0.00019042546004547885
-0.0018766985536623607
0.0013678836189062115
-0.0009710154659839507
-0.00015917810249524713
0.0009094716061288967
-0.000492476812585823
4.408213169217053e-05
-0.001672559955283127
-0.001434346008217827
-0.0005992691429493951
0.006345950725135509
0.0011695967845180388
0.0015219140762306146
-0.0022543837850416515
-0.000731077147105456
0.0002681914968287298
0.0013079082746973126
-0.000763050190772977
0.013241439788014783
0.0003787781049875407
0.0006888830224525354
0.0018497332362027703
-0.001273625754868164
0.0024087437535599346
-0.0005010715624343784
0.0010557167052889253
-0.001002648497446821
-0.0018484435940428544
0.0006872727764374185
0.00021368491118068574
0.0016736491207865226
-0.0025386215430785804
4.100531545450037e-05
-0.0004328200291458439
0.0010032177441221385
-0.0011035672425178885
0.0018117032069134124
-0.0014090902733762422
0.0011748136301100575
0.00017339264755816589
-0.0019325951956540041
0.009338565835544039
-0.0012229381034238277
-0.00025573865617359456
0.00026535800355161125
-0.00013018864151815578
0.00025672518671292276
-0.0008923177601641403
-0.0012239749256821957
0.0007071011841164056
-0.0007864926516260068
0.0008709427448725149
0.0015085546291837002
3.162457915240252e-05
0.0005646971360395128
-0.00015670977339307378
-0.00048036952675038644
0.004805053630103618
-0.0010433285547561582
-0.0008603448302745924
0.0021160103834679703
-0.00021042880135440303
-0.000900328116522468
-0.0025556522177181407
0.00010809204545184133
-0.0006232302803695951
-0.0002882221133118904
1.881166238637751e-05
0.00018701556350555484
-0.0012288217194524069
-0.0005642982501288694
-0.003536723066162354
0.020816648395321394
0.030133472332470032
-0.0009009191337104406
-0.00032475584265577104
0.0020944114813450086
-0.0014802891767101253
-0.003687869312769899
0.0011381670189451274
-0.014507534893347166
-0.0003332812842514811
-0.0036000192048453
-0.0009912560106935112
0.01383849604709789
0.000962420932655306
-0.003607192989144105
0.0028398302033706218
-0.003711901115676245
-0.0005157434941133588
0.0006792909374968333
-0.0003089207303885468
0.00018919603168920005
-0.0001919251270161501
0.0014173567659495072
0.0004289011879081161
-0.004853504902502467
0.00017553843978780121
-0.00017928473593573172
0.0004239503738398544
-0.0011918110163430871
-0.0009761116125506317
0.0015446948006658469
0.002076786471499116
-0.0006193841485953528
0.0008345671839976184
0.001836825093318838
-0.002122326412347666
-0.0023698560901658974
-7.917805631658519e-05
0.0007740699066098907
0.0016029430312724424
0.003412237019480436
-0.00255790472070392
0.0021511602159874025
-0.000223153198623078
0.0010289900776511045
-0.000608768007329846
-0.015766359592784347
-0.0002811662474449838
-8.571720807323074e-05
-0.0007989491472907607
0.0003185838277864576
-0.00021876157038560717
-0.0010112513679146245
-0.001617653689534223
-0.0009119894265795962
0.0016632812786004207
-0.0010564460785058008
-0.0002992787133193955
0.0025958115086487767
0.0009740575468487089
-0.005139401099425531
-0.000533735096098722
