# vtk DataFile Version 3.0
LucasCarvalhoTCC Results
ASCII

DATASET POLYDATA

POINTS 77 float
0.0 0.0 0.0
5.0 0.0 0.0
5.0 1.0 0.0
0.0 1.0 0.0
0.4166666666661555 0.0 0.0
0.8333333333322329 0.0 0.0
1.249999999997625 0.0 0.0
1.666666666663135 0.0 0.0
2.083333333329781 0.0 0.0
2.499999999996205 0.0 0.0
2.916666666663382 0.0 0.0
3.333333333330808 0.0 0.0
3.74999999999832 0.0 0.0
4.166666666665408 0.0 0.0
4.583333333332117 0.0 0.0
5.0 0.2499999999994194 0.0
5.0 0.499999999998694 0.0
5.0 0.749999999999347 0.0
4.583333333333843 1.0 0.0
4.166666666666665 1.0 0.0
3.749999999999871 1.0 0.0
3.33333333333333 1.0 0.0
2.916666666666175 1.0 0.0
2.499999999999995 1.0 0.0
2.083333333333093 1.0 0.0
1.66666666666666 1.0 0.0
1.250000000000127 1.0 0.0
0.8333333333333259 1.0 0.0
0.4166666666667247 1.0 0.0
0.0 0.7500000000009891 0.0
0.0 0.5000000000020591 0.0
0.0 0.2500000000010296 0.0
0.4128016944531732 0.4175683143768217 0.0
4.378259268480748 0.2991579007801742 0.0
0.5010888926055894 0.6054034216133208 0.0
4.368669665273361 0.7116469832461365 0.0
0.9990220222949553 0.5510256359289009 0.0
1.723806085874311 0.5085438569853729 0.0
3.770949601380545 0.5027448236220966 0.0
2.589946956831019 0.5018113080161319 0.0
0.4569452935293813 0.5114858679950713 0.0
0.6230675138927031 0.2087841571884109 0.0
0.9161776778135942 0.2755128179644504 0.0
0.7500554574502724 0.5782145287711109 0.0
0.6865614856714878 0.3934993429797609 0.0
2.544973478415507 0.750905654008066 0.0
1.695236376270485 0.7542719284926864 0.0
2.156876521352665 0.5051775825007524 0.0
2.120104927342879 0.7525887912503761 0.0
3.552141467356938 0.7513724118110483 0.0
3.180448279105782 0.5022780658191143 0.0
3.048557472885979 0.7511390329095571 0.0
4.074604434930647 0.4009513622011354 0.0
3.552141467355677 0.2513724118110483 0.0
4.272462967573078 0.1495789503900871 0.0
3.912302217464483 0.2004756811005677 0.0
2.544973478413612 0.250905654008066 0.0
3.048557472884582 0.2511390329095571 0.0
1.695236376268723 0.2542719284926864 0.0
2.120104927341223 0.2525887912503762 0.0
1.361414054084633 0.5297847464571368 0.0
1.305707027041129 0.2648923732285684 0.0
0.9161776778141406 0.7755128179644504 0.0
1.30570702704238 0.7648923732285684 0.0
4.267668165970013 0.8558234916230683 0.0
4.069809633326953 0.6071959034341166 0.0
3.909904816663412 0.8035979517170583 0.0
0.2064008472265866 0.4587841571894404 0.0
0.2505444463027947 0.8027017108066604 0.0
0.2284726467646906 0.6307429339980303 0.0
4.689129634240373 0.3995789503894341 0.0
4.684334832636681 0.6058234916224152 0.0
4.379469633783663 0.5033874269117753 0.0
0.311533756946371 0.2293920785947202 0.0
4.636231483786245 0.1997894751947532 0.0
4.633834082985262 0.8029117458112076 0.0
0.5833610620584985 0.7891072643855555 0.0

POLYGONS 120 480
3 56 59 9
3 10 56 9
3 56 57 39
3 56 10 57
3 59 8 9
3 4 73 0
3 61 42 6
3 42 5 6
3 24 48 23
3 57 50 39
3 50 51 39
3 50 49 51
3 15 74 1
3 74 14 1
3 17 71 16
3 71 70 16
3 70 15 16
3 15 70 74
3 70 71 72
3 14 54 13
3 65 52 72
3 52 65 38
3 55 12 13
3 54 55 13
3 55 54 52
3 55 52 38
3 69 29 30
3 73 31 0
3 67 69 30
3 31 67 30
3 67 31 73
3 69 67 40
3 41 73 4
3 5 41 4
3 41 5 42
3 7 61 6
3 47 37 59
3 37 47 48
3 47 56 39
3 56 47 59
3 45 22 23
3 48 45 23
3 51 45 39
3 22 45 51
3 45 47 39
3 47 45 48
3 21 49 20
3 49 21 51
3 21 22 51
3 53 50 57
3 53 55 38
3 55 53 12
3 49 53 38
3 50 53 49
3 36 43 42
3 36 61 60
3 61 36 42
3 75 17 2
3 18 75 2
3 17 75 71
3 33 14 74
3 33 54 14
3 33 70 72
3 70 33 74
3 52 33 72
3 54 33 52
3 66 19 20
3 65 66 38
3 66 49 38
3 49 66 20
3 29 68 3
3 68 28 3
3 68 29 69
3 67 32 40
3 32 67 73
3 41 32 73
3 32 44 40
3 44 32 41
3 43 44 42
3 44 41 42
3 7 58 61
3 61 58 60
3 58 37 60
3 37 58 59
3 58 7 8
3 58 8 59
3 63 25 26
3 63 36 60
3 10 11 57
3 11 53 57
3 53 11 12
3 64 18 19
3 66 64 19
3 64 66 65
3 68 76 28
3 28 76 27
3 63 46 25
3 46 37 48
3 37 46 60
3 46 63 60
3 25 46 24
3 24 46 48
3 27 62 26
3 62 63 26
3 63 62 36
3 36 62 43
3 76 62 27
3 62 76 43
3 35 75 18
3 64 35 18
3 71 35 72
3 75 35 71
3 35 65 72
3 35 64 65
3 34 76 68
3 34 69 40
3 34 68 69
3 76 34 43
3 44 34 40
3 34 44 43

POINT_DATA 77

SCALARS Velocity_X float 1

LOOKUP_TABLE Velocity_X
1e-06
0.0
0.0
1e-06
0.0
0.0
0.0
0.0
0.0
0.0
0.0
0.0
0.0
0.0
0.0
1.0711739238939229
0.9794149504709765
1.0706824190331268
0.0
0.0
0.0
0.0
0.0
0.0
0.0
0.0
0.0
0.0
0.0
1e-06
1e-06
1e-06
1.4174701641130523
1.1088407470403345
1.4883768455171846
1.1137164437580256
1.6734573661988619
1.6001366901065501
1.5633992973213517
1.5799603592065752
1.5487950653630975
0.7593757747574853
1.0345271511312208
1.617812623042953
1.6119894854781194
1.003656528775014
0.9884058665700388
1.582205916305895
1.000942642181643
1.1278847046185179
1.5933599144972053
0.99524438581277
1.429278158665236
1.1250864549016477
0.7565413755702342
0.887908560556456
1.0055169720097217
0.9951786399387332
1.00536404467819
1.0077232754954402
1.6065203699889998
1.0238254371126205
0.9115931628058142
0.9704303302405523
0.7593800498113908
1.433917979359643
0.8924114482683903
1.2188869559933437
0.9557796348247976
1.2446553404920406
1.3441407356273762
1.3470169401031347
1.6130523901156364
0.9406116572292084
0.8774734586035841
0.8813360818412455
0.8387628990432916

SCALARS Velocity_Y float 1

LOOKUP_TABLE Velocity_Y
0.0
0.0
0.0
0.0
0.0
0.0
0.0
0.0
0.0
0.0
0.0
0.0
0.0
0.0
0.0
-0.29245057975178373
-0.0005286867465046486
0.28656287544184755
0.0
0.0
0.0
0.0
0.0
0.0
0.0
0.0
0.0
0.0
0.0
0.0
0.0
0.0
0.06295873374376214
-0.01106724430234929
-0.0909032092545867
0.005398072937733593
0.013346877621039394
-0.0043521132616810305
0.004310029580717937
0.0006205540451456853
-0.05960795071614311
0.05709798791632666
-0.032980640459442795
0.03389498420223409
-0.004896087129833914
-0.0005627158475850823
0.0005904241414699708
-0.0015863979178878961
0.00530518606256393
0.009356254249031899
0.0007088061149208371
0.007274431875605615
0.05318483411765661
-0.0068501772040236416
-0.06368346203994994
0.023550431885214003
0.00046668278641091404
-0.006094108596257881
-0.007150010233107922
-0.00330875411502908
-0.016118701294691447
-0.027901207656863467
0.024603271452604113
0.002147776523887882
0.060662808515429385
-0.0446715992403865
-0.021180628078861508
0.1273639697752149
-0.16625164283506502
-0.09736445815212405
-0.11613596306442502
0.10091902647301144
-0.003134529212693167
0.17335388106719005
-0.08601934713638386
0.0850546152757336
-0.04940861634738096
