# vtk DataFile Version 3.0
LucasCarvalhoTCC Results
ASCII

DATASET POLYDATA
FIELD FieldData 1
TIME 1 1 double
10.0

POINTS 200 float
0.0 0.0 0.0
0.5555555555555556 0.0 0.0
1.1111111111111112 0.0 0.0
1.6666666666666667 0.0 0.0
2.2222222222222223 0.0 0.0
2.7777777777777777 0.0 0.0
3.3333333333333335 0.0 0.0
3.8888888888888893 0.0 0.0
4.444444444444445 0.0 0.0
5.0 0.0 0.0
0.0 0.05263157894736842 0.0
0.5555555555555556 0.05263157894736842 0.0
1.1111111111111112 0.05263157894736842 0.0
1.6666666666666667 0.05263157894736842 0.0
2.2222222222222223 0.05263157894736842 0.0
2.7777777777777777 0.05263157894736842 0.0
3.3333333333333335 0.05263157894736842 0.0
3.8888888888888893 0.05263157894736842 0.0
4.444444444444445 0.05263157894736842 0.0
5.0 0.05263157894736842 0.0
0.0 0.10526315789473684 0.0
0.5555555555555556 0.10526315789473684 0.0
1.1111111111111112 0.10526315789473684 0.0
1.6666666666666667 0.10526315789473684 0.0
2.2222222222222223 0.10526315789473684 0.0
2.7777777777777777 0.10526315789473684 0.0
3.3333333333333335 0.10526315789473684 0.0
3.8888888888888893 0.10526315789473684 0.0
4.444444444444445 0.10526315789473684 0.0
5.0 0.10526315789473684 0.0
0.0 0.15789473684210525 0.0
0.5555555555555556 0.15789473684210525 0.0
1.1111111111111112 0.15789473684210525 0.0
1.6666666666666667 0.15789473684210525 0.0
2.2222222222222223 0.15789473684210525 0.0
2.7777777777777777 0.15789473684210525 0.0
3.3333333333333335 0.15789473684210525 0.0
3.8888888888888893 0.15789473684210525 0.0
4.444444444444445 0.15789473684210525 0.0
5.0 0.15789473684210525 0.0
0.0 0.21052631578947367 0.0
0.5555555555555556 0.21052631578947367 0.0
1.1111111111111112 0.21052631578947367 0.0
1.6666666666666667 0.21052631578947367 0.0
2.2222222222222223 0.21052631578947367 0.0
2.7777777777777777 0.21052631578947367 0.0
3.3333333333333335 0.21052631578947367 0.0
3.8888888888888893 0.21052631578947367 0.0
4.444444444444445 0.21052631578947367 0.0
5.0 0.21052631578947367 0.0
0.0 0.2631578947368421 0.0
0.5555555555555556 0.2631578947368421 0.0
1.1111111111111112 0.2631578947368421 0.0
1.6666666666666667 0.2631578947368421 0.0
2.2222222222222223 0.2631578947368421 0.0
2.7777777777777777 0.2631578947368421 0.0
3.3333333333333335 0.2631578947368421 0.0
3.8888888888888893 0.2631578947368421 0.0
4.444444444444445 0.2631578947368421 0.0
5.0 0.2631578947368421 0.0
0.0 0.3157894736842105 0.0
0.5555555555555556 0.3157894736842105 0.0
1.1111111111111112 0.3157894736842105 0.0
1.6666666666666667 0.3157894736842105 0.0
2.2222222222222223 0.3157894736842105 0.0
2.7777777777777777 0.3157894736842105 0.0
3.3333333333333335 0.3157894736842105 0.0
3.8888888888888893 0.3157894736842105 0.0
4.444444444444445 0.3157894736842105 0.0
5.0 0.3157894736842105 0.0
0.0 0.3684210526315789 0.0
0.5555555555555556 0.3684210526315789 0.0
1.1111111111111112 0.3684210526315789 0.0
1.6666666666666667 0.3684210526315789 0.0
2.2222222222222223 0.3684210526315789 0.0
2.7777777777777777 0.3684210526315789 0.0
3.3333333333333335 0.3684210526315789 0.0
3.8888888888888893 0.3684210526315789 0.0
4.444444444444445 0.3684210526315789 0.0
5.0 0.3684210526315789 0.0
0.0 0.42105263157894735 0.0
0.5555555555555556 0.42105263157894735 0.0
1.1111111111111112 0.42105263157894735 0.0
1.6666666666666667 0.42105263157894735 0.0
2.2222222222222223 0.42105263157894735 0.0
2.7777777777777777 0.42105263157894735 0.0
3.3333333333333335 0.42105263157894735 0.0
3.8888888888888893 0.42105263157894735 0.0
4.444444444444445 0.42105263157894735 0.0
5.0 0.42105263157894735 0.0
0.0 0.47368421052631576 0.0
0.5555555555555556 0.47368421052631576 0.0
1.1111111111111112 0.47368421052631576 0.0
1.6666666666666667 0.47368421052631576 0.0
2.2222222222222223 0.47368421052631576 0.0
2.7777777777777777 0.47368421052631576 0.0
3.3333333333333335 0.47368421052631576 0.0
3.8888888888888893 0.47368421052631576 0.0
4.444444444444445 0.47368421052631576 0.0
5.0 0.47368421052631576 0.0
0.0 0.5263157894736842 0.0
0.5555555555555556 0.5263157894736842 0.0
1.1111111111111112 0.5263157894736842 0.0
1.6666666666666667 0.5263157894736842 0.0
2.2222222222222223 0.5263157894736842 0.0
2.7777777777777777 0.5263157894736842 0.0
3.3333333333333335 0.5263157894736842 0.0
3.8888888888888893 0.5263157894736842 0.0
4.444444444444445 0.5263157894736842 0.0
5.0 0.5263157894736842 0.0
0.0 0.5789473684210527 0.0
0.5555555555555556 0.5789473684210527 0.0
1.1111111111111112 0.5789473684210527 0.0
1.6666666666666667 0.5789473684210527 0.0
2.2222222222222223 0.5789473684210527 0.0
2.7777777777777777 0.5789473684210527 0.0
3.3333333333333335 0.5789473684210527 0.0
3.8888888888888893 0.5789473684210527 0.0
4.444444444444445 0.5789473684210527 0.0
5.0 0.5789473684210527 0.0
0.0 0.631578947368421 0.0
0.5555555555555556 0.631578947368421 0.0
1.1111111111111112 0.631578947368421 0.0
1.6666666666666667 0.631578947368421 0.0
2.2222222222222223 0.631578947368421 0.0
2.7777777777777777 0.631578947368421 0.0
3.3333333333333335 0.631578947368421 0.0
3.8888888888888893 0.631578947368421 0.0
4.444444444444445 0.631578947368421 0.0
5.0 0.631578947368421 0.0
0.0 0.6842105263157894 0.0
0.5555555555555556 0.6842105263157894 0.0
1.1111111111111112 0.6842105263157894 0.0
1.6666666666666667 0.6842105263157894 0.0
2.2222222222222223 0.6842105263157894 0.0
2.7777777777777777 0.6842105263157894 0.0
3.3333333333333335 0.6842105263157894 0.0
3.8888888888888893 0.6842105263157894 0.0
4.444444444444445 0.6842105263157894 0.0
5.0 0.6842105263157894 0.0
0.0 0.7368421052631579 0.0
0.5555555555555556 0.7368421052631579 0.0
1.1111111111111112 0.7368421052631579 0.0
1.6666666666666667 0.7368421052631579 0.0
2.2222222222222223 0.7368421052631579 0.0
2.7777777777777777 0.7368421052631579 0.0
3.3333333333333335 0.7368421052631579 0.0
3.8888888888888893 0.7368421052631579 0.0
4.444444444444445 0.7368421052631579 0.0
5.0 0.7368421052631579 0.0
0.0 0.7894736842105263 0.0
0.5555555555555556 0.7894736842105263 0.0
1.1111111111111112 0.7894736842105263 0.0
1.6666666666666667 0.7894736842105263 0.0
2.2222222222222223 0.7894736842105263 0.0
2.7777777777777777 0.7894736842105263 0.0
3.3333333333333335 0.7894736842105263 0.0
3.8888888888888893 0.7894736842105263 0.0
4.444444444444445 0.7894736842105263 0.0
5.0 0.7894736842105263 0.0
0.0 0.8421052631578947 0.0
0.5555555555555556 0.8421052631578947 0.0
1.1111111111111112 0.8421052631578947 0.0
1.6666666666666667 0.8421052631578947 0.0
2.2222222222222223 0.8421052631578947 0.0
2.7777777777777777 0.8421052631578947 0.0
3.3333333333333335 0.8421052631578947 0.0
3.8888888888888893 0.8421052631578947 0.0
4.444444444444445 0.8421052631578947 0.0
5.0 0.8421052631578947 0.0
0.0 0.894736842105263 0.0
0.5555555555555556 0.894736842105263 0.0
1.1111111111111112 0.894736842105263 0.0
1.6666666666666667 0.894736842105263 0.0
2.2222222222222223 0.894736842105263 0.0
2.7777777777777777 0.894736842105263 0.0
3.3333333333333335 0.894736842105263 0.0
3.8888888888888893 0.894736842105263 0.0
4.444444444444445 0.894736842105263 0.0
5.0 0.894736842105263 0.0
0.0 0.9473684210526315 0.0
0.5555555555555556 0.9473684210526315 0.0
1.1111111111111112 0.9473684210526315 0.0
1.6666666666666667 0.9473684210526315 0.0
2.2222222222222223 0.9473684210526315 0.0
2.7777777777777777 0.9473684210526315 0.0
3.3333333333333335 0.9473684210526315 0.0
3.8888888888888893 0.9473684210526315 0.0
4.444444444444445 0.9473684210526315 0.0
5.0 0.9473684210526315 0.0
0.0 1.0 0.0
0.5555555555555556 1.0 0.0
1.1111111111111112 1.0 0.0
1.6666666666666667 1.0 0.0
2.2222222222222223 1.0 0.0
2.7777777777777777 1.0 0.0
3.3333333333333335 1.0 0.0
3.8888888888888893 1.0 0.0
4.444444444444445 1.0 0.0
5.0 1.0 0.0

POLYGONS 342 1368
3 82 91 81
3 91 82 92
3 108 97 98
3 97 108 107
3 100 91 101
3 91 100 90
3 55 46 56
3 46 55 45
3 56 46 57
3 46 47 57
3 52 62 61
3 52 61 51
3 91 80 81
3 80 91 90
3 1 10 0
3 11 10 1
3 10 11 21
3 20 10 21
3 41 52 51
3 52 41 42
3 30 41 40
3 41 30 31
3 30 20 21
3 31 30 21
3 12 1 2
3 12 11 1
3 11 12 21
3 12 22 21
3 191 182 192
3 181 182 191
3 128 139 138
3 129 139 128
3 109 108 98
3 99 109 98
3 8 17 7
3 18 17 8
3 19 8 9
3 19 18 8
3 19 29 28
3 18 19 28
3 47 58 57
3 58 47 48
3 58 67 57
3 58 68 67
3 180 191 190
3 180 181 191
3 180 170 171
3 181 180 171
3 110 111 121
3 120 110 121
3 111 110 101
3 110 100 101
3 106 97 107
3 97 106 96
3 6 16 5
3 16 15 5
3 16 6 7
3 17 16 7
3 33 34 43
3 34 44 43
3 24 34 23
3 34 33 23
3 14 4 5
3 15 14 5
3 14 15 25
3 24 14 25
3 34 35 44
3 35 45 44
3 35 34 24
3 35 24 25
3 71 82 81
3 71 72 82
3 62 71 61
3 72 71 62
3 71 80 70
3 80 71 81
3 60 71 70
3 71 60 61
3 50 41 51
3 41 50 40
3 61 50 51
3 60 50 61
3 55 54 45
3 45 54 44
3 64 54 65
3 54 55 65
3 32 33 43
3 42 32 43
3 33 32 23
3 23 32 22
3 41 32 42
3 32 41 31
3 32 31 21
3 22 32 21
3 132 131 122
3 122 131 121
3 131 130 120
3 131 120 121
3 119 129 128
3 119 128 118
3 109 119 108
3 108 119 118
3 117 106 107
3 106 117 116
3 117 127 126
3 116 117 126
3 108 117 107
3 117 108 118
3 128 117 118
3 127 117 128
3 135 136 145
3 145 136 146
3 179 178 169
3 178 168 169
3 148 139 149
3 139 148 138
3 159 148 149
3 148 159 158
3 168 159 169
3 158 159 168
3 39 49 48
3 38 39 48
3 29 39 28
3 39 38 28
3 27 17 18
3 27 18 28
3 170 161 171
3 160 161 170
3 161 160 150
3 151 161 150
3 125 116 126
3 125 115 116
3 125 136 135
3 136 125 126
3 106 105 96
3 96 105 95
3 105 106 116
3 115 105 116
3 125 114 115
3 114 125 124
3 114 105 115
3 105 114 104
3 85 94 84
3 94 85 95
3 105 94 95
3 94 105 104
3 125 134 124
3 134 125 135
3 164 155 165
3 155 164 154
3 193 183 194
3 183 184 194
3 184 183 174
3 174 183 173
3 183 193 192
3 182 183 192
3 185 195 194
3 184 185 194
3 195 185 196
3 185 186 196
3 156 145 146
3 156 155 145
3 86 97 96
3 97 86 87
3 86 77 87
3 86 76 77
3 86 96 95
3 85 86 95
3 67 66 57
3 66 56 57
3 76 66 77
3 77 66 67
3 66 55 56
3 55 66 65
3 4 13 3
3 14 13 4
3 13 24 23
3 13 14 24
3 3 13 2
3 13 12 2
3 12 13 22
3 13 23 22
3 16 26 15
3 15 26 25
3 26 16 17
3 27 26 17
3 44 53 43
3 54 53 44
3 53 52 42
3 53 42 43
3 75 64 65
3 75 74 64
3 75 85 84
3 74 75 84
3 75 66 76
3 66 75 65
3 86 75 76
3 75 86 85
3 112 122 121
3 111 112 121
3 183 172 173
3 172 183 182
3 172 181 171
3 172 182 181
3 161 172 171
3 172 161 162
3 152 161 151
3 161 152 162
3 136 137 146
3 137 147 146
3 127 137 126
3 137 136 126
3 148 137 138
3 137 148 147
3 137 128 138
3 137 127 128
3 178 177 168
3 177 167 168
3 198 188 199
3 188 189 199
3 189 188 179
3 188 178 179
3 37 38 48
3 47 37 48
3 38 37 28
3 37 27 28
3 88 99 98
3 88 89 99
3 97 88 98
3 88 97 87
3 49 59 48
3 59 58 48
3 58 59 68
3 59 69 68
3 103 94 104
3 94 103 93
3 144 155 154
3 155 144 145
3 144 135 145
3 144 134 135
3 164 163 154
3 154 163 153
3 163 174 173
3 163 164 174
3 152 163 162
3 163 152 153
3 172 163 173
3 163 172 162
3 185 175 186
3 186 175 176
3 175 164 165
3 164 175 174
3 175 184 174
3 175 185 184
3 177 166 167
3 166 177 176
3 175 166 176
3 166 175 165
3 155 166 165
3 156 166 155
3 157 156 146
3 147 157 146
3 166 157 167
3 157 166 156
3 157 148 158
3 148 157 147
3 157 158 168
3 167 157 168
3 36 46 45
3 35 36 45
3 36 35 25
3 26 36 25
3 46 36 47
3 36 37 47
3 36 26 27
3 37 36 27
3 102 91 92
3 91 102 101
3 102 111 101
3 102 112 111
3 103 102 93
3 93 102 92
3 141 151 150
3 140 141 150
3 131 141 130
3 141 140 130
3 141 152 151
3 152 141 142
3 141 132 142
3 141 131 132
3 187 197 196
3 186 187 196
3 187 186 176
3 177 187 176
3 197 187 198
3 187 188 198
3 187 177 178
3 188 187 178
3 78 69 79
3 69 78 68
3 89 78 79
3 88 78 89
3 68 78 67
3 78 77 67
3 77 78 87
3 78 88 87
3 112 113 122
3 113 123 122
3 102 113 112
3 113 102 103
3 113 114 124
3 123 113 124
3 114 113 104
3 113 103 104
3 134 133 124
3 133 123 124
3 133 132 122
3 123 133 122
3 94 83 84
3 83 94 93
3 83 74 84
3 83 73 74
3 82 83 92
3 83 93 92
3 72 83 82
3 73 83 72
3 63 54 64
3 63 53 54
3 74 63 64
3 73 63 74
3 52 63 62
3 53 63 52
3 63 72 62
3 63 73 72
3 143 144 154
3 143 154 153
3 144 143 134
3 143 133 134
3 143 152 142
3 152 143 153
3 132 143 142
3 133 143 132

POINT_DATA 200

SCALARS Velocity_Y float 1

LOOKUP_TABLE Velocity_Y
0.0
0.0
0.0
0.0
0.0
0.0
0.0
0.0
0.0
0.0
0.0
0.036940067287538216
0.010390273463846465
0.0023468503435776743
-0.0248050936697797
0.021413944039594717
0.0066573821646294905
-0.018892003758525427
-0.034374824699981696
-0.04241804911177879
0.0
0.033130295603398016
0.013709483888428332
0.001261994720677501
-0.019421426950111502
0.019893356168105763
0.012164828726235576
-0.030754158416238676
-0.03437415695576028
-0.05250533584128514
0.0
0.02904139034598695
0.008243657904046468
0.0009250953712952156
-0.010263213461441822
0.004612480294665107
0.015052842127510721
-0.02182822112172814
-0.03028922438364718
-0.042543516786143286
0.0
0.024551837957255025
0.00963289216143051
0.0018021671014852134
-0.014064241147841022
0.016119622252508386
0.010267712069176479
-0.02644582015319085
-0.02646717301363434
-0.03104646176363623
0.0
0.01873752572266614
0.006086952391328952
0.00334698801414143
-0.016146536323060012
0.020703870895055047
0.005973946231773923
-0.025105669603496375
-0.018735786314176238
-0.025379650864897962
0.0
0.017427982776699043
0.004884012756997743
0.004239580446209221
-0.010689988876266621
0.0034912367780343566
0.01101749786682315
-0.01637141981523887
-0.019350624667492045
-0.012518452723415674
0.0
0.010003995118916718
0.005900619314604017
0.001254715682692164
-0.007725219475775739
0.010077660102644029
0.005686722290450806
-0.020054876794637258
-0.011824469164101622
-0.010749282393584884
0.0
0.005706559674349121
0.0005525036601641831
0.005291712465165532
-0.009525451315871377
0.0020658312043902558
0.009194917917851226
-0.012714849447491778
-0.004844455239417743
-0.005389385684785581
0.0
-0.0005106304193098669
0.0018368299097857384
0.005196605328283381
-0.009837095683378693
0.009035853392342806
0.010716099139414913
-0.016268944143491136
8.640265111029191e-05
0.0011945178409819665
0.0
-0.00595114763564696
-0.0021638383528913563
0.004751115589640613
-0.003825109132559638
0.005097612661890392
0.0006773327288613681
-0.00605917716475549
0.0030533399411516735
0.007487692640412684
0.0
-0.009566422850887634
-0.006346925245930463
0.009921420218047839
-0.014349020196662999
0.002745111670215894
0.016392627288064187
-0.014653021000521554
0.006825403911157187
0.021944721654154477
0.0
-0.013480434193552682
-0.00536563485438004
0.005346901284866632
-0.0034537496602241014
0.0038651351189796443
-0.0008069710637268194
-0.004877181807026174
0.012741965732504182
0.02443487677816259
0.0
-0.017884294196745174
-0.009803496896148374
0.009652516175066439
-0.006974907884009663
-0.005569731646750377
0.0189405294105571
-0.016049280236284384
0.016476062000849376
0.040756958426645506
0.0
-0.027783623747491146
-0.009548589800840957
0.01738523179806033
-0.020132842447902703
0.015120437859380623
-0.0022628866692044045
-0.004090048101595843
0.023214728112643867
0.04111873507191743
0.0
-0.029488285239063935
-0.012606468824527168
0.007529366275136266
0.0007406998545485798
-0.002852271259497629
0.014878961135740283
-0.02004777978257211
0.027715258368653864
0.05987125003318676
0.0
-0.039896228936421946
-0.014167677680220035
0.024702590448613955
-0.029627269927878744
0.005936807511332465
0.015079620586672308
-0.010461698729041527
0.030830591803685633
0.07076789598882262
0.0
-0.04545452294463977
-0.016707101097815126
0.015981278862168068
0.0008816447828781676
0.0019608781357242045
0.001964278224784793
-0.01950093004134538
0.0429421837359238
0.0741870050178313
0.0
-0.04008934395624244
-0.01215772748830414
0.017526650219596897
-0.01645619700536433
0.00013455787462891564
0.015989610340666115
-0.016947390865657306
0.03749165084741255
0.07214695565525227
0.0
0.0
0.0
0.0
0.0
0.0
0.0
0.0
0.0
0.0

SCALARS Velocity_X float 1

LOOKUP_TABLE Velocity_X
1.0
0.0
0.0
0.0
0.0
0.0
0.0
0.0
0.0
0.0
1.0
0.6870278031639384
0.6490171854196236
0.6091156454103676
0.6531757144016573
0.7474172449452527
0.4648115191981135
0.6272259597836918
0.7554348878784644
0.9021900816970339
1.0
1.0614069976408615
1.1036524818091198
1.1127637156170629
1.0895048375206304
1.0612531836711465
1.0671298758864451
1.0991228222821354
1.0675641194712995
0.9828492033439649
1.0
1.104174366852577
1.1187593919946028
1.1145546115935847
1.1187036323345494
1.0883299230072288
1.1319540898284541
1.093088361505136
1.094633473664734
1.0312848659844962
1.0
1.062416872923999
1.1081262504803413
1.0983363850811378
1.0932873964595526
1.0793518705425518
1.1187976799459318
1.0945425802891007
1.055936921267035
0.9570110028608247
1.0
1.0806520369558967
1.0923315605093327
1.0997996256065143
1.091048585183142
1.0935030892858473
1.1366482862395002
1.1101352974000864
1.0962193067670059
1.0287972800381484
1.0
1.059615965394141
1.0968120953425218
1.098687145576696
1.0895733997790236
1.080819901536387
1.1041158192676155
1.0857976938497362
1.0528988864122817
1.0027447101344051
1.0
1.0604008459244962
1.1106682997421882
1.1093398255256541
1.098107991247229
1.0958732870619594
1.1212097564772583
1.1083687635127457
1.06543767511017
0.9648448300340924
1.0
1.0641948754274442
1.086997623521454
1.0978605800386434
1.0870391048557584
1.0896957355574735
1.100904661642434
1.0948744591521808
1.066846594365596
1.007000619508896
1.0
1.058236141248244
1.1134332474473214
1.1052826475903073
1.0950519148580935
1.0995938512557426
1.1051850904220488
1.092057608295738
1.0590762937564744
1.0009264439492096
1.0
1.039612102017286
1.0924728417550005
1.1016581863750934
1.0856143243375245
1.0974628032878098
1.0999269383977512
1.1103456812745094
1.073118442513927
0.995141644883163
1.0
1.0762004016392233
1.0998048801832387
1.0978332643912891
1.088003061917165
1.111156130226822
1.09840622386309
1.094601952573518
1.0924924020158946
1.0277597126695983
1.0
1.0569164823177344
1.1026146353398387
1.1111871204445647
1.0866832212099056
1.098304551142179
1.0920496382008118
1.1135630987060279
1.0662627387386312
0.950745941782317
1.0
1.0608099473014976
1.1033086244510715
1.100759032657164
1.0845920462122383
1.1137423836604272
1.095359357009898
1.096955477481147
1.0982634562002143
1.036731042723875
1.0
1.060232231166028
1.1281479644808543
1.0972956124179354
1.083753576771866
1.111409414920652
1.0861041870845476
1.1195896144415813
1.0699253162478155
0.949431094045688
1.0
1.063108289441369
1.0948818103430218
1.1118395816289097
1.0701047511285962
1.1009309691712783
1.0754805697271128
1.0936914883370445
1.106288906958339
1.0256939485976948
1.0
1.0726628355709535
1.147506415495351
1.1141542978115302
1.0979797073444117
1.1745969805782843
1.1138821000637598
1.1331020274208181
1.0978544405269886
1.0092008112493676
1.0
1.0957763010255333
1.0938206688606265
1.1377396189477933
1.0791203583715865
1.0555908823618154
1.0723696411029473
1.1098697941320879
1.071356855308978
0.96556791509208
1.0
0.7390948804518243
0.5327334218337587
0.6241862563806337
0.7639757853195193
0.5279318973433673
0.7696631053806668
0.645062743229344
0.7660311786984573
1.2034892112659412
1.0
0.0
0.0
0.0
0.0
0.0
0.0
0.0
0.0
0.0
