# vtk DataFile Version 3.0
LucasCarvalhoTCC Results
ASCII

DATASET POLYDATA

POINTS 200 float
0.0 0.0 0.0
0.2631578947368421 0.0 0.0
0.5263157894736842 0.0 0.0
0.7894736842105263 0.0 0.0
1.0526315789473684 0.0 0.0
1.3157894736842104 0.0 0.0
1.5789473684210527 0.0 0.0
1.8421052631578947 0.0 0.0
2.1052631578947367 0.0 0.0
2.3684210526315788 0.0 0.0
2.631578947368421 0.0 0.0
2.894736842105263 0.0 0.0
3.1578947368421053 0.0 0.0
3.4210526315789473 0.0 0.0
3.6842105263157894 0.0 0.0
3.9473684210526314 0.0 0.0
4.2105263157894735 0.0 0.0
4.473684210526316 0.0 0.0
4.7368421052631575 0.0 0.0
5.0 0.0 0.0
0.0 0.1111111111111111 0.0
0.2631578947368421 0.1111111111111111 0.0
0.5263157894736842 0.1111111111111111 0.0
0.7894736842105263 0.1111111111111111 0.0
1.0526315789473684 0.1111111111111111 0.0
1.3157894736842104 0.1111111111111111 0.0
1.5789473684210527 0.1111111111111111 0.0
1.8421052631578947 0.1111111111111111 0.0
2.1052631578947367 0.1111111111111111 0.0
2.3684210526315788 0.1111111111111111 0.0
2.631578947368421 0.1111111111111111 0.0
2.894736842105263 0.1111111111111111 0.0
3.1578947368421053 0.1111111111111111 0.0
3.4210526315789473 0.1111111111111111 0.0
3.6842105263157894 0.1111111111111111 0.0
3.9473684210526314 0.1111111111111111 0.0
4.2105263157894735 0.1111111111111111 0.0
4.473684210526316 0.1111111111111111 0.0
4.7368421052631575 0.1111111111111111 0.0
5.0 0.1111111111111111 0.0
0.0 0.2222222222222222 0.0
0.2631578947368421 0.2222222222222222 0.0
0.5263157894736842 0.2222222222222222 0.0
0.7894736842105263 0.2222222222222222 0.0
1.0526315789473684 0.2222222222222222 0.0
1.3157894736842104 0.2222222222222222 0.0
1.5789473684210527 0.2222222222222222 0.0
1.8421052631578947 0.2222222222222222 0.0
2.1052631578947367 0.2222222222222222 0.0
2.3684210526315788 0.2222222222222222 0.0
2.631578947368421 0.2222222222222222 0.0
2.894736842105263 0.2222222222222222 0.0
3.1578947368421053 0.2222222222222222 0.0
3.4210526315789473 0.2222222222222222 0.0
3.6842105263157894 0.2222222222222222 0.0
3.9473684210526314 0.2222222222222222 0.0
4.2105263157894735 0.2222222222222222 0.0
4.473684210526316 0.2222222222222222 0.0
4.7368421052631575 0.2222222222222222 0.0
5.0 0.2222222222222222 0.0
0.0 0.3333333333333333 0.0
0.2631578947368421 0.3333333333333333 0.0
0.5263157894736842 0.3333333333333333 0.0
0.7894736842105263 0.3333333333333333 0.0
1.0526315789473684 0.3333333333333333 0.0
1.3157894736842104 0.3333333333333333 0.0
1.5789473684210527 0.3333333333333333 0.0
1.8421052631578947 0.3333333333333333 0.0
2.1052631578947367 0.3333333333333333 0.0
2.3684210526315788 0.3333333333333333 0.0
2.631578947368421 0.3333333333333333 0.0
2.894736842105263 0.3333333333333333 0.0
3.1578947368421053 0.3333333333333333 0.0
3.4210526315789473 0.3333333333333333 0.0
3.6842105263157894 0.3333333333333333 0.0
3.9473684210526314 0.3333333333333333 0.0
4.2105263157894735 0.3333333333333333 0.0
4.473684210526316 0.3333333333333333 0.0
4.7368421052631575 0.3333333333333333 0.0
5.0 0.3333333333333333 0.0
0.0 0.4444444444444444 0.0
0.2631578947368421 0.4444444444444444 0.0
0.5263157894736842 0.4444444444444444 0.0
0.7894736842105263 0.4444444444444444 0.0
1.0526315789473684 0.4444444444444444 0.0
1.3157894736842104 0.4444444444444444 0.0
1.5789473684210527 0.4444444444444444 0.0
1.8421052631578947 0.4444444444444444 0.0
2.1052631578947367 0.4444444444444444 0.0
2.3684210526315788 0.4444444444444444 0.0
2.631578947368421 0.4444444444444444 0.0
2.894736842105263 0.4444444444444444 0.0
3.1578947368421053 0.4444444444444444 0.0
3.4210526315789473 0.4444444444444444 0.0
3.6842105263157894 0.4444444444444444 0.0
3.9473684210526314 0.4444444444444444 0.0
4.2105263157894735 0.4444444444444444 0.0
4.473684210526316 0.4444444444444444 0.0
4.7368421052631575 0.4444444444444444 0.0
5.0 0.4444444444444444 0.0
0.0 0.5555555555555556 0.0
0.2631578947368421 0.5555555555555556 0.0
0.5263157894736842 0.5555555555555556 0.0
0.7894736842105263 0.5555555555555556 0.0
1.0526315789473684 0.5555555555555556 0.0
1.3157894736842104 0.5555555555555556 0.0
1.5789473684210527 0.5555555555555556 0.0
1.8421052631578947 0.5555555555555556 0.0
2.1052631578947367 0.5555555555555556 0.0
2.3684210526315788 0.5555555555555556 0.0
2.631578947368421 0.5555555555555556 0.0
2.894736842105263 0.5555555555555556 0.0
3.1578947368421053 0.5555555555555556 0.0
3.4210526315789473 0.5555555555555556 0.0
3.6842105263157894 0.5555555555555556 0.0
3.9473684210526314 0.5555555555555556 0.0
4.2105263157894735 0.5555555555555556 0.0
4.473684210526316 0.5555555555555556 0.0
4.7368421052631575 0.5555555555555556 0.0
5.0 0.5555555555555556 0.0
0.0 0.6666666666666666 0.0
0.2631578947368421 0.6666666666666666 0.0
0.5263157894736842 0.6666666666666666 0.0
0.7894736842105263 0.6666666666666666 0.0
1.0526315789473684 0.6666666666666666 0.0
1.3157894736842104 0.6666666666666666 0.0
1.5789473684210527 0.6666666666666666 0.0
1.8421052631578947 0.6666666666666666 0.0
2.1052631578947367 0.6666666666666666 0.0
2.3684210526315788 0.6666666666666666 0.0
2.631578947368421 0.6666666666666666 0.0
2.894736842105263 0.6666666666666666 0.0
3.1578947368421053 0.6666666666666666 0.0
3.4210526315789473 0.6666666666666666 0.0
3.6842105263157894 0.6666666666666666 0.0
3.9473684210526314 0.6666666666666666 0.0
4.2105263157894735 0.6666666666666666 0.0
4.473684210526316 0.6666666666666666 0.0
4.7368421052631575 0.6666666666666666 0.0
5.0 0.6666666666666666 0.0
0.0 0.7777777777777777 0.0
0.2631578947368421 0.7777777777777777 0.0
0.5263157894736842 0.7777777777777777 0.0
0.7894736842105263 0.7777777777777777 0.0
1.0526315789473684 0.7777777777777777 0.0
1.3157894736842104 0.7777777777777777 0.0
1.5789473684210527 0.7777777777777777 0.0
1.8421052631578947 0.7777777777777777 0.0
2.1052631578947367 0.7777777777777777 0.0
2.3684210526315788 0.7777777777777777 0.0
2.631578947368421 0.7777777777777777 0.0
2.894736842105263 0.7777777777777777 0.0
3.1578947368421053 0.7777777777777777 0.0
3.4210526315789473 0.7777777777777777 0.0
3.6842105263157894 0.7777777777777777 0.0
3.9473684210526314 0.7777777777777777 0.0
4.2105263157894735 0.7777777777777777 0.0
4.473684210526316 0.7777777777777777 0.0
4.7368421052631575 0.7777777777777777 0.0
5.0 0.7777777777777777 0.0
0.0 0.8888888888888888 0.0
0.2631578947368421 0.8888888888888888 0.0
0.5263157894736842 0.8888888888888888 0.0
0.7894736842105263 0.8888888888888888 0.0
1.0526315789473684 0.8888888888888888 0.0
1.3157894736842104 0.8888888888888888 0.0
1.5789473684210527 0.8888888888888888 0.0
1.8421052631578947 0.8888888888888888 0.0
2.1052631578947367 0.8888888888888888 0.0
2.3684210526315788 0.8888888888888888 0.0
2.631578947368421 0.8888888888888888 0.0
2.894736842105263 0.8888888888888888 0.0
3.1578947368421053 0.8888888888888888 0.0
3.4210526315789473 0.8888888888888888 0.0
3.6842105263157894 0.8888888888888888 0.0
3.9473684210526314 0.8888888888888888 0.0
4.2105263157894735 0.8888888888888888 0.0
4.473684210526316 0.8888888888888888 0.0
4.7368421052631575 0.8888888888888888 0.0
5.0 0.8888888888888888 0.0
0.0 1.0 0.0
0.2631578947368421 1.0 0.0
0.5263157894736842 1.0 0.0
0.7894736842105263 1.0 0.0
1.0526315789473684 1.0 0.0
1.3157894736842104 1.0 0.0
1.5789473684210527 1.0 0.0
1.8421052631578947 1.0 0.0
2.1052631578947367 1.0 0.0
2.3684210526315788 1.0 0.0
2.631578947368421 1.0 0.0
2.894736842105263 1.0 0.0
3.1578947368421053 1.0 0.0
3.4210526315789473 1.0 0.0
3.6842105263157894 1.0 0.0
3.9473684210526314 1.0 0.0
4.2105263157894735 1.0 0.0
4.473684210526316 1.0 0.0
4.7368421052631575 1.0 0.0
5.0 1.0 0.0

POLYGONS 342 1368
3 29 9 10
3 30 29 10
3 150 131 151
3 131 150 130
3 61 60 41
3 60 40 41
3 70 90 69
3 69 90 89
3 28 29 49
3 48 28 49
3 29 28 9
3 28 8 9
3 64 83 63
3 83 64 84
3 104 83 84
3 103 83 104
3 181 162 182
3 161 162 181
3 60 81 80
3 81 60 61
3 81 100 80
3 100 81 101
3 81 102 101
3 102 81 82
3 102 83 103
3 83 102 82
3 123 102 103
3 102 123 122
3 62 81 61
3 81 62 82
3 62 61 41
3 42 62 41
3 83 62 63
3 62 83 82
3 20 21 40
3 40 21 41
3 21 20 0
3 1 21 0
3 126 145 125
3 145 126 146
3 68 48 49
3 69 68 49
3 68 69 89
3 88 68 89
3 11 30 10
3 11 31 30
3 31 11 32
3 11 12 32
3 12 13 32
3 32 13 33
3 110 131 130
3 131 110 111
3 163 184 183
3 184 163 164
3 163 183 182
3 162 163 182
3 160 181 180
3 160 161 181
3 160 140 141
3 161 160 141
3 142 123 143
3 123 142 122
3 142 163 162
3 163 142 143
3 142 162 161
3 142 161 141
3 171 150 151
3 171 170 150
3 171 191 190
3 170 171 190
3 142 121 122
3 121 142 141
3 102 121 101
3 121 102 122
3 43 62 42
3 62 43 63
3 43 64 63
3 64 43 44
3 22 1 2
3 22 21 1
3 22 42 41
3 21 22 41
3 22 2 3
3 23 22 3
3 22 43 42
3 43 22 23
3 144 163 143
3 163 144 164
3 184 165 185
3 165 184 164
3 144 165 164
3 165 144 145
3 31 50 30
3 51 50 31
3 50 29 30
3 29 50 49
3 50 70 69
3 50 69 49
3 52 31 32
3 52 51 31
3 110 91 111
3 91 110 90
3 93 73 74
3 94 93 74
3 91 112 111
3 112 91 92
3 112 131 111
3 112 132 131
3 112 93 113
3 93 112 92
3 172 193 192
3 193 172 173
3 191 172 192
3 171 172 191
3 28 7 8
3 27 7 28
3 109 88 89
3 109 108 88
3 90 109 89
3 110 109 90
3 87 68 88
3 68 87 67
3 170 169 150
3 169 149 150
3 189 169 190
3 169 170 190
3 34 13 14
3 13 34 33
3 112 133 132
3 133 112 113
3 140 120 141
3 120 121 141
3 120 100 101
3 121 120 101
3 7 26 6
3 26 7 27
3 25 5 6
3 26 25 6
3 124 103 104
3 124 123 103
3 123 124 143
3 124 144 143
3 145 124 125
3 144 124 145
3 166 145 146
3 166 165 145
3 166 186 185
3 165 166 185
3 166 187 186
3 187 166 167
3 53 32 33
3 53 52 32
3 34 53 33
3 53 34 54
3 73 53 74
3 53 54 74
3 50 71 70
3 71 50 51
3 71 90 70
3 71 91 90
3 150 129 130
3 149 129 150
3 129 110 130
3 129 109 110
3 168 189 188
3 168 169 189
3 169 168 149
3 168 148 149
3 187 168 188
3 168 187 167
3 15 34 14
3 34 15 35
3 39 18 19
3 18 39 38
3 39 58 38
3 58 39 59
3 79 78 59
3 78 58 59
3 18 37 17
3 37 18 38
3 176 197 196
3 197 176 177
3 34 55 54
3 55 34 35
3 54 55 74
3 55 75 74
3 95 94 74
3 75 95 74
3 95 116 115
3 116 95 96
3 134 153 133
3 153 134 154
3 46 25 26
3 25 46 45
3 87 86 67
3 86 66 67
3 46 65 45
3 65 46 66
3 86 65 66
3 65 86 85
3 65 64 44
3 45 65 44
3 64 65 84
3 65 85 84
3 105 124 104
3 124 105 125
3 105 104 84
3 85 105 84
3 105 126 125
3 126 105 106
3 86 105 85
3 105 86 106
3 24 25 45
3 24 45 44
3 5 24 4
3 25 24 5
3 43 24 44
3 24 43 23
3 4 24 3
3 24 23 3
3 147 166 146
3 166 147 167
3 126 147 146
3 127 147 126
3 168 147 148
3 147 168 167
3 107 86 87
3 86 107 106
3 107 126 106
3 107 127 126
3 108 107 88
3 107 87 88
3 91 72 92
3 71 72 91
3 52 72 51
3 72 71 51
3 93 72 73
3 72 93 92
3 53 72 52
3 72 53 73
3 109 128 108
3 129 128 109
3 128 129 149
3 148 128 149
3 107 128 127
3 128 107 108
3 128 147 127
3 147 128 148
3 99 78 79
3 78 99 98
3 78 57 58
3 57 78 77
3 58 57 38
3 57 37 38
3 118 99 119
3 99 118 98
3 139 118 119
3 118 139 138
3 139 159 158
3 138 139 158
3 193 174 194
3 174 193 173
3 174 153 154
3 153 174 173
3 134 135 154
3 135 155 154
3 15 36 35
3 36 15 16
3 36 16 17
3 37 36 17
3 133 152 132
3 153 152 133
3 172 152 173
3 152 153 173
3 131 152 151
3 132 152 131
3 152 171 151
3 152 172 171
3 114 93 94
3 93 114 113
3 114 133 113
3 114 134 133
3 95 114 94
3 114 95 115
3 114 135 134
3 135 114 115
3 66 47 67
3 46 47 66
3 47 26 27
3 47 46 26
3 68 47 48
3 47 68 67
3 47 28 48
3 47 27 28
3 179 178 159
3 159 178 158
3 198 178 199
3 178 179 199
3 178 198 197
3 178 197 177
3 176 157 177
3 157 176 156
3 178 157 158
3 157 178 177
3 157 138 158
3 157 137 138
3 117 118 138
3 137 117 138
3 175 174 154
3 155 175 154
3 174 175 194
3 175 195 194
3 176 175 156
3 175 155 156
3 175 176 196
3 195 175 196
3 135 136 155
3 155 136 156
3 116 136 115
3 136 135 115
3 136 157 156
3 157 136 137
3 136 117 137
3 117 136 116
3 76 95 75
3 95 76 96
3 97 78 98
3 78 97 77
3 118 97 98
3 117 97 118
3 76 97 96
3 97 76 77
3 97 116 96
3 97 117 116
3 56 55 35
3 36 56 35
3 55 56 75
3 56 76 75
3 57 56 37
3 56 36 37
3 56 57 77
3 76 56 77

POINT_DATA 200

SCALARS Velocity_X float 1

LOOKUP_TABLE Velocity_X
1.0
0.0
0.0
0.0
0.0
0.0
0.0
0.0
0.0
0.0
0.0
0.0
0.0
0.0
0.0
0.0
0.0
0.0
0.0
0.0
1.0
0.9272548298819826
0.699926591349067
0.5869888045957895
0.6041412119046281
0.5894702270370401
0.5702198718572116
0.5745062585238915
0.5798628242181764
0.5537341743881483
0.5255625119150714
0.7180101025934493
0.5557221246422454
0.562026895133424
0.5900035081975527
0.6162982492875458
0.4541885476852854
0.5960552870349194
0.7793488945814936
0.8979927095534653
1.0
1.1483608975156028
1.2525376338511944
1.193510909708756
1.2096644767730818
1.1677446331739298
1.127621314700019
1.1302199924755818
1.1861102600531854
1.1603824826572768
1.1470274054707994
1.1234949693622756
1.1991481296602235
1.1550220587495064
1.1947873405703844
1.1225954213240228
1.1404285880289724
1.1373165404140493
1.112528965292664
1.0365398254617193
1.0
1.1494564880276639
1.2634397699665358
1.353033485142141
1.3245759298800392
1.3216000006704678
1.3334802613598418
1.3339957318879083
1.3250859538049542
1.3455535594304187
1.3663858521567196
1.295160441606442
1.3334461129392976
1.3599342612350085
1.3198793081033429
1.3278761482895234
1.3807499904787481
1.3634385111289982
1.1735586119408212
0.8807716692789712
1.0
1.1313359004308376
1.2899632143872193
1.3044588453229873
1.3384763431865587
1.3410001890511976
1.3385016639242493
1.3334822200184335
1.3335708215106
1.3481192412718108
1.3392907958218785
1.3285265272709572
1.372879287449156
1.3469162920728786
1.318579515492536
1.339319909048271
1.395679736972546
1.3075602148755328
1.2181183232198094
1.0932562735407503
1.0
1.073459275905353
1.2489061951431086
1.3392612803251072
1.3354016283372547
1.3369760991822406
1.3350227848865277
1.3351815596548415
1.3362753306068484
1.3392469392245707
1.3329717451919652
1.3185349623528488
1.3532938608035845
1.3423056815061378
1.3356516692428584
1.334921395954958
1.3431005014790642
1.3202773528822411
1.1634875815421655
0.8731850837679284
1.0
1.2317798900717853
1.3605621978616393
1.3205227823182604
1.3315154477661002
1.3288807621318064
1.335619215845763
1.3419756691898646
1.3294428190731826
1.3375205654224487
1.3130492413355466
1.3365203683832756
1.4188723951307842
1.3412250408530775
1.3123045321212143
1.3131419663292485
1.3436650707986348
1.3522139995841045
1.3204230057195558
1.0870282283032329
1.0
1.0946051775270371
1.178204745786103
1.1991077418053075
1.0801941570703146
1.193778748521719
1.2044621203792554
1.1801173818880133
1.203517774391076
1.1886241797331873
1.1235526945120007
1.1152363321378445
1.15268674769821
1.0958589196979889
1.19782104976025
1.2230074456571596
1.180200558491448
1.152942375390598
1.1708636460650994
1.0173099396736431
1.0
0.7948882805787274
0.5792617850382785
0.5848077082259302
0.6044106021664878
0.5798096628275788
0.5927998639003936
0.5893073091865232
0.6015433062832555
0.5960600805844445
0.6017706092579341
0.6158152924356625
0.45040771489709763
0.6309797695688897
0.6075615735956662
0.6096799752904208
0.6122312501862768
0.5621788110288977
0.7595399490850282
1.2038998509991636
1.0
0.0
0.0
0.0
0.0
0.0
0.0
0.0
0.0
0.0
0.0
0.0
0.0
0.0
0.0
0.0
0.0
0.0
0.0
0.0

SCALARS Velocity_Y float 1

LOOKUP_TABLE Velocity_Y
0.0
0.0
0.0
0.0
0.0
0.0
0.0
0.0
0.0
0.0
0.0
0.0
0.0
0.0
0.0
0.0
0.0
0.0
0.0
0.0
0.0
0.14667915023801884
0.04246349902543145
0.009071696119819344
0.026044828672642087
-0.02211971090004951
-0.029104700811365517
0.03905352355466559
0.01973786323539239
-0.01934766887473535
-0.021013674049586793
0.010328888194259223
-0.008265798145002948
0.012673820401681347
-0.0039457171189947945
0.020388286400137196
0.018947147943338166
-0.06422598352455298
-0.17544963672927077
-0.16472607540819093
0.0
0.1364437117709518
0.11034738495754445
0.010516018840848703
0.006948600343047565
-0.006299248331955664
0.014997403314187106
0.0024205422520179997
-0.004984284386905522
0.015418336530168669
-0.04934577531752111
-0.017955841734053263
0.07527011357554068
-0.011168283169679308
-0.022403521749890475
0.03735722023558085
0.02046594460096363
-0.11046484675641481
-0.1878693298544957
-0.17944525791012228
0.0
0.07905639152662441
0.056811891536338976
0.024944031234212325
0.009683240062466241
0.01770043890410628
-0.0008288431597078483
-0.002458795039239278
0.004790580555835524
0.009632801570438977
-0.027574458320370764
-0.027258219523288538
0.04121141956075943
-0.003989983274058648
-0.008561211904934076
0.05466766580513327
0.001437575541873934
-0.09213998562534331
-0.11069187533143907
-0.1412955470936884
0.0
0.019985486308721497
0.01983510288004241
0.0053476825640681545
0.018937375300199778
0.010838843954223815
-0.0011218283622245386
0.0004205066234859732
0.002521303312991471
-0.0006633797258280209
-0.028590432181698117
-0.003705904346585034
0.009838300821346738
0.005992257620938152
0.007097114059632566
0.020510422388035555
-3.9997433109322776e-05
-0.038146362810479104
-0.04161619089967196
-0.03287648667303434
0.0
-0.052647023654722964
-0.02242150507437427
-0.012664010578610958
0.010293891973988376
0.015613819740857678
0.0027754382813161096
0.00015935438392386926
4.3841590903059914e-06
-0.000875343229124107
-0.018231286189824294
-0.012636788429061196
0.014532973902590264
0.010428768003600018
0.005231092212079957
0.0027474897818121086
0.00839709945249223
0.0029241420269036484
0.01606013273930635
0.04638675855093901
0.0
-0.12237811270535062
-0.06869440034154868
0.006364489248021637
0.0029135436539608813
0.018475711932255164
-0.0003135433837135859
0.0008454395750880649
0.0009832679599142964
-0.0009176186320866437
-0.013180510752991193
-0.03968132971085104
0.0036924691375618936
0.0443690609601878
0.000926908142542584
0.007401825735087002
-0.0014266846803535672
0.029886361851014454
0.08270117223805186
0.17616077096061816
0.0
-0.17634075927204323
-0.08492126896284105
0.0023069699080726096
0.011078090935161858
0.00837994730845625
-0.005854595544439802
4.001995086826097e-05
0.015592941670169159
-0.0020497721376753365
0.0037660569301022667
-0.053735406904510896
0.012364756748037203
0.04428610145018706
-0.009371009946627243
0.0014499021302618962
0.006080787453595902
-0.00466642441745234
0.17604388134090565
0.3281890212737977
0.0
-0.1869310087207083
-0.06230439000038831
0.02474202520232244
0.03861413831860277
-0.0632522915075367
0.02603660771322939
0.0006282122034221609
-0.021538220949724456
0.05466427623528439
-0.016910233202130677
-0.06030971038301621
0.022937522521077124
0.05356316993326586
-0.05382602378678471
0.001623608762109623
0.055152698677813826
-0.022134255549184776
0.08645740274435675
0.3809888933353211
0.0
0.0
0.0
0.0
0.0
0.0
0.0
0.0
0.0
0.0
0.0
0.0
0.0
0.0
0.0
0.0
0.0
0.0
0.0
0.0
