# vtk DataFile Version 3.0
LucasCarvalhoTCC Results
ASCII

DATASET POLYDATA
FIELD FieldData 1
TIME 1 1 double
4.3

POINTS 531 float
0.02430399999999999 0.16425 0.0
0.5913384 0.481878 0.0
1.30475 0.591832 0.0
0.774126 0.951272 0.0
0.04779564148251592 0.1966194329439859 0.0
0.0726092153537953 0.2279866320496896 0.0
0.09876577335895967 0.2582426022760065 0.0
0.1262817198684718 0.2872673048853742 0.0
0.1551671626852806 0.3149288071400502 0.0
0.1854238368919928 0.3410826624766006 0.0
0.2170424591499632 0.3655716640299072 0.0
0.2499995164635996 0.3882263409476824 0.0
0.2842534387828506 0.4088665906889567 0.0
0.3197403359862048 0.4273050841371062 0.0
0.3563695945475563 0.4433531534921038 0.0
0.3940201673622058 0.4568300511916809 0.0
0.4325386107291805 0.4675762214989666 0.0
0.4717406913237268 0.4754709112408955 0.0
0.5114182513144845 0.480453442081874 0.0
0.5513531678859215 0.4825464217651069 0.0
0.6182637923774223 0.5096055604109244 0.0
0.647389101376845 0.5350126187545199 0.0
0.6784752958296183 0.5579802184492302 0.0
0.7112421079139344 0.5784810076698811 0.0
0.7454110434104482 0.5965507527581431 0.0
0.7807301979183381 0.6122562812860965 0.0
0.8169827939052532 0.6256694297140926 0.0
0.853985522124928 0.6368498290413532 0.0
0.8915818964261243 0.6458353363890481 0.0
0.9296339776508085 0.6526379336565091 0.0
0.9680139759519513 0.6572432424840469 0.0
1.006596418266983 0.659612648128084 0.0
1.045251165872634 0.6596877658251245 0.0
1.083837680945672 0.657397570658483 0.0
1.122201320191055 0.6526688455666412 0.0
1.160173053543044 0.6454405726452737 0.0
1.197574286953346 0.6356824063786186 0.0
1.23422961949795 0.6234159704281613 0.0
1.26998758503999 0.6087366500005643 0.0
1.285086682927543 0.6256533177085738 0.0
1.263669745906668 0.6583917156018083 0.0
1.240480125919214 0.6898988493917133 0.0
1.215532715641304 0.7200329197235763 0.0
1.188869833862339 0.7486599839005789 0.0
1.160556835593143 0.7756559317113654 0.0
1.130680194163798 0.8009104211039757 0.0
1.099347083827048 0.8243335727704395 0.0
1.066684425336412 0.8458643604021228 0.0
1.03283497048792 0.8654772531176074 0.0
0.9979492572630678 0.8831824104874066 0.0
0.9621749986495024 0.8990166556695112 0.0
0.9256475378616493 0.9130272060048579 0.0
0.8884846540507749 0.9252538945090274 0.0
0.8507866567183312 0.935715378288671 0.0
0.8126405010322847 0.9444016349017643 0.0
0.7365055179612304 0.9396161853607135 0.0
0.699310855231089 0.9266666891603924 0.0
0.6626179171945521 0.9123577070090924 0.0
0.6264901449910028 0.8966765244755546 0.0
0.5909789825447118 0.8796450886595113 0.0
0.556124897941028 0.8613059841617771 0.0
0.5219601957009091 0.8417124664434518 0.0
0.4885110616878257 0.8209207172498462 0.0
0.4558007060429968 0.7989848675704875 0.0
0.4238520247653796 0.775953675763176 0.0
0.3926900138417566 0.7518687036338616 0.0
0.3623437622133722 0.7267636709390595 0.0
0.3328479550295906 0.7006647540504483 0.0
0.3042438201183181 0.6735915983461908 0.0
0.2765795358619001 0.6455588748284606 0.0
0.2499101143933102 0.6165781952942546 0.0
0.2242967982692083 0.5866601984136335 0.0
0.1998060807431611 0.5558166834807132 0.0
0.1765083808984156 0.5240625786010467 0.0
0.154476512720734 0.491417660368959 0.0
0.133784033184808 0.457907916333494 0.0
0.114503564227142 0.4235664945146766 0.0
0.09670517293008124 0.3884342245925089 0.0
0.0804548910754031 0.3525597611689231 0.0
0.06581337946329963 0.3159993090744527 0.0
0.05283482490365372 0.2788161107032479 0.0
0.0415660226296666 0.2410796291505872 0.0
0.03204569406625649 0.2028646095712164 0.0
0.5272009874003867 0.6419624505772817 0.0
0.7421848286576707 0.7716726266421574 0.0
0.8789503364783713 0.7829234141383637 0.0
0.6149390992905563 0.7449438030688011 0.0
0.4064556042659638 0.5942834991165423 0.0
0.9875021850865396 0.7666507358101158 0.0
0.3188065960661005 0.539594034984892 0.0
0.61365100263957 0.6399487878797632 0.0
0.8049090660915541 0.8464379870891131 0.0
0.7099820328572021 0.6828840522539854 0.0
0.5239467234991928 0.7406922291088611 0.0
0.8154056325591208 0.7211774015928547 0.0
0.6676178829014909 0.8152713180209475 0.0
0.4416080359619968 0.674360953773491 0.0
0.489443615375965 0.5654986742123573 0.0
1.076665773779852 0.7387182918829318 0.0
0.250390543112057 0.4877450112830265 0.0
0.5736819937919005 0.5790366884881447 0.0
0.7263706755366466 0.8615301097563091 0.0
0.940143307772686 0.8233944909985552 0.0
0.927065543677544 0.7236459161626674 0.0
0.8744389806957806 0.8609114380468947 0.0
0.336888362650554 0.6081958070931937 0.0
0.2030757334857187 0.4383942902513459 0.0
0.3861483329720647 0.5255533415902591 0.0
0.5621001921466506 0.7923778419149285 0.0
0.6822897332295245 0.7428043323059399 0.0
0.5764061681675353 0.6881266532454204 0.0
1.129195449682892 0.7163224153578123 0.0
0.8157794419559141 0.7831214907157077 0.0
0.3806644703311284 0.6554275822782399 0.0
0.7695737871052837 0.669593045341503 0.0
0.4699375460410929 0.6217118815516158 0.0
0.6830867370872363 0.630350317562806 0.0
1.040416897214502 0.7929392348941093 0.0
0.4604428393605979 0.7321209818568342 0.0
0.8729552856459739 0.7015083313474691 0.0
1.017010765275644 0.7166925631396708 0.0
0.6458785458483771 0.6946878992565794 0.0
0.7733575582969163 0.8941098392103913 0.0
0.4457537579383052 0.5273353624588528 0.0
0.163830623786951 0.3903175742448083 0.0
0.6095823984734953 0.8256600013628639 0.0
0.2618074352614998 0.5435604438425528 0.0
0.6287880420949764 0.5875838132975476 0.0
0.3100402147222924 0.4835410260423071 0.0
0.5422177893302824 0.5343158927797464 0.0
0.9964262112680041 0.8213447667248638 0.0
0.4971609598823845 0.6906859160718212 0.0
0.5740517260168769 0.633982031239429 0.0
0.7423299505107201 0.7218768583704394 0.0
0.767147744476665 0.819658485932403 0.0
0.9427329070375209 0.7774595780066723 0.0
0.8375285793481674 0.8869398470561132 0.0
0.2879426409425497 0.5872676364411625 0.0
0.6797562629663748 0.8647676397847667 0.0
1.171674168522591 0.6949964056806914 0.0
0.5261010885606964 0.6055079299963303 0.0
0.7081534744446967 0.8078672678314597 0.0
0.9681672688626206 0.705385299758921 0.0
0.7364069054947873 0.6432919177737106 0.0
0.363826821075015 0.5678764295233764 0.0
0.826170216989844 0.6605791783255148 0.0
0.1284439337099834 0.3602715082199688 0.0
0.518140828090112 0.783905985497134 0.0
0.8452908336054504 0.8167586152211004 0.0
0.2015204468558833 0.492088055688788 0.0
0.4005883523205732 0.7121294304856254 0.0
0.3551392316798573 0.4864133323669936 0.0
0.2501727034998737 0.4443035857235296 0.0
0.857938396055507 0.7390317828783199 0.0
0.9245301815433076 0.8668102132501951 0.0
0.5702050292970205 0.7323438487067678 0.0
1.111607633075016 0.759318252473435 0.0
0.6317193755596126 0.7853891653733797 0.0
0.7921381265818805 0.7497379312370454 0.0
1.088942426366261 0.7015435214091311 0.0
0.5818207607488639 0.5352340257544296 0.0
0.4203532416309484 0.6369649631143086 0.0
0.4854818714173937 0.5131439318707094 0.0
0.4475429831528036 0.5690430472086269 0.0
0.8968753306595262 0.8225547516037004 0.0
0.6339557898063448 0.8543470494763272 0.0
0.3416564411796998 0.6516449771136894 0.0
1.082970576264455 0.7856036465430698 0.0
0.2255204648032354 0.5229464838393291 0.0
0.7335043541589261 0.9012744999286941 0.0
0.9097052989734319 0.6921177492721042 0.0
0.5363428275528405 0.6992389299864537 0.0
0.9657777897300287 0.8588269742066746 0.0
1.025947476617909 0.7556651119714124 0.0
0.1090829970454354 0.3226173037985549 0.0
0.4836644525169279 0.7663103281018557 0.0
0.6910856326166581 0.777867529208468 0.0
0.6694391877434097 0.5946719355048008 0.0
0.2954883530575775 0.4501042133334518 0.0
0.6746032498128595 0.6643957640016517 0.0
1.054636636429828 0.6974583960183274 0.0
0.8939255235163368 0.7470597914537064 0.0
0.3749741568555516 0.6190655430398917 0.0
1.204101441114554 0.6801433534918062 0.0
0.6130053345415899 0.6785345531932346 0.0
0.7679719108452487 0.8562682874000032 0.0
0.9710820219997449 0.8008372590855476 0.0
0.1608022352294362 0.4242591696906621 0.0
0.2865399820604418 0.5141369963640697 0.0
0.1962258775846918 0.4008383427744516 0.0
0.6210920174972845 0.5516143721732873 0.0
0.4843009180093644 0.6583977883024127 0.0
0.5695029195102991 0.8267073580550881 0.0
0.9562891163300477 0.7436031251145003 0.0
0.4174190173896447 0.5044019081507806 0.0
0.410860431802698 0.5535781448116232 0.0
0.8709320861791604 0.9002602580953145 0.0
0.427354757192076 0.7399041791280969 0.0
0.7107884943357746 0.7172753954970394 0.0
1.030382288537246 0.8267335242583146 0.0
0.7737440530215844 0.7115751739064536 0.0
0.8042035044852396 0.9123190309183211 0.0
0.0480920891272324 0.2181807374272496 0.0
0.3695079235280397 0.6886893012630373 0.0
0.773516204411121 0.7830673827025234 0.0
0.302776671534508 0.6210168062901616 0.0
0.7150573728414059 0.6149413270404035 0.0
0.5863276441271683 0.769748656022605 0.0
1.143752049005473 0.6780480059671409 0.0
0.6477132714923303 0.7318578097016951 0.0
0.8380052680878572 0.8531154611905379 0.0
0.5966224054445893 0.6051703156405629 0.0
0.3207240819522855 0.5772784374275386 0.0
0.3520131451607586 0.5263918604440553 0.0
0.8573528491808811 0.6709738722470224 0.0
0.1797236573643203 0.460867988842514 0.0
0.5540828191547277 0.6661566975721369 0.0
1.158039843450239 0.7357536542887966 0.0
0.08638006908591334 0.286237566592474 0.0
0.790861820497242 0.6466611559014377 0.0
0.5362079962218838 0.8121454698907893 0.0
0.9405172130232713 0.6862060282668497 0.0
0.6039359324506977 0.711463595189489 0.0
0.4440093493753478 0.6096873538428137 0.0
0.5500746279087338 0.7620941994763282 0.0
0.2578504496023611 0.5739900063885278 0.0
0.502526452350101 0.6209820553182169 0.0
0.6799833858912959 0.7033681517905728 0.0
0.7183487148906835 0.7518430858176317 0.0
0.8006701240044786 0.8118713608014352 0.0
0.1304684854221093 0.3934039266496895 0.0
1.00789495394612 0.7937868725857601 0.0
0.696960396255943 0.893370944718147 0.0
0.8258315165019564 0.7538365084989149 0.0
0.8462950259502577 0.775614153529746 0.0
0.4082018839227037 0.6749460331934272 0.0
0.7025889307788081 0.8378536687159448 0.0
0.4666676520109517 0.6984557076050861 0.0
[...]
POINT_DATA 531

VECTORS Velocity float
0.0000000000000000 1.0000000000000000 0.0
0.0000000000000000 1.0000000000000000 0.0
2.6381852057706490 -0.9593339024923587 0.0
1.7795310045585591 1.0217795988807405 0.0
0.0000000000000000 1.0000000000000000 0.0
0.0000000000000000 1.0000000000000000 0.0
0.0000000000000000 1.0000000000000000 0.0
0.0000000000000000 1.0000000000000000 0.0
0.0000000000000000 1.0000000000000000 0.0
0.0000000000000000 1.0000000000000000 0.0
0.0000000000000000 1.0000000000000000 0.0
0.0000000000000000 1.0000000000000000 0.0
0.0000000000000000 1.0000000000000000 0.0
0.0000000000000000 1.0000000000000000 0.0
0.0000000000000000 1.0000000000000000 0.0
0.0000000000000000 1.0000000000000000 0.0
0.0000000000000000 1.0000000000000000 0.0
0.0000000000000000 1.0000000000000000 0.0
0.0000000000000000 1.0000000000000000 0.0
0.0000000000000000 1.0000000000000000 0.0
0.0000000000000000 0.0000000000000000 0.0
0.0000000000000000 0.0000000000000000 0.0
0.0000000000000000 0.0000000000000000 0.0
0.0000000000000000 0.0000000000000000 0.0
0.0000000000000000 0.0000000000000000 0.0
0.0000000000000000 0.0000000000000000 0.0
0.0000000000000000 0.0000000000000000 0.0
0.0000000000000000 0.0000000000000000 0.0
0.0000000000000000 0.0000000000000000 0.0
0.0000000000000000 0.0000000000000000 0.0
0.0000000000000000 0.0000000000000000 0.0
0.0000000000000000 0.0000000000000000 0.0
0.0000000000000000 0.0000000000000000 0.0
0.0000000000000000 0.0000000000000000 0.0
0.0000000000000000 0.0000000000000000 0.0
0.0000000000000000 0.0000000000000000 0.0
0.0000000000000000 0.0000000000000000 0.0
0.0000000000000000 0.0000000000000000 0.0
0.0000000000000000 0.0000000000000000 0.0
2.6782997691794281 -1.7943028820459805 0.0
3.6707973482768397 -2.3037178655687103 0.0
3.7614423259487437 -2.2274993317580494 0.0
3.7619149186483529 -1.9746582392998542 0.0
3.8495616942848554 -1.7580180826825660 0.0
3.9457346697591125 -1.4529667886788655 0.0
3.9988337756318391 -1.2922689802096892 0.0
4.1108483223513970 -1.0617372477508404 0.0
4.0749185828946661 -0.7580339804566077 0.0
4.0487398370525627 -0.4912815580536762 0.0
3.9119514466245611 -0.1999714342854449 0.0
3.6947584977011978 0.0914249487469207 0.0
3.5143537028567851 0.3187037154418244 0.0
3.1702784699205222 0.5575084254855110 0.0
2.5715672147405382 1.0889098096353873 0.0
1.7554258915171177 0.9468085843521729 0.0
0.0000000000000000 0.0000000000000000 0.0
0.0000000000000000 0.0000000000000000 0.0
0.0000000000000000 0.0000000000000000 0.0
0.0000000000000000 0.0000000000000000 0.0
0.0000000000000000 0.0000000000000000 0.0
0.0000000000000000 0.0000000000000000 0.0
0.0000000000000000 0.0000000000000000 0.0
0.0000000000000000 0.0000000000000000 0.0
0.0000000000000000 0.0000000000000000 0.0
0.0000000000000000 0.0000000000000000 0.0
0.0000000000000000 0.0000000000000000 0.0
0.0000000000000000 0.0000000000000000 0.0
0.0000000000000000 0.0000000000000000 0.0
0.0000000000000000 0.0000000000000000 0.0
0.0000000000000000 0.0000000000000000 0.0
0.0000000000000000 0.0000000000000000 0.0
0.0000000000000000 0.0000000000000000 0.0
0.0000000000000000 0.0000000000000000 0.0
0.0000000000000000 0.0000000000000000 0.0
0.0000000000000000 0.0000000000000000 0.0
0.0000000000000000 0.0000000000000000 0.0
0.0000000000000000 0.0000000000000000 0.0
0.0000000000000000 0.0000000000000000 0.0
0.0000000000000000 0.0000000000000000 0.0
0.0000000000000000 0.0000000000000000 0.0
0.0000000000000000 0.0000000000000000 0.0
0.0000000000000000 0.0000000000000000 0.0
0.0000000000000000 0.0000000000000000 0.0
3.9632199568026634 2.5991480329058625 0.0
4.2755061116364006 2.1030755813417388 0.0
3.9198123030162972 1.1579245499945445 0.0
3.8370962053165276 2.2079902703913281 0.0
3.8132639024205846 2.9214474663657661 0.0
3.4777532208855066 0.1006395210313250 0.0
3.9069665637039206 3.4801868845195392 0.0
3.7462455994781774 2.4407645971813268 0.0
3.7266120026178307 1.9062226802160764 0.0
3.5675589642292707 1.7209813277708574 0.0
2.8608258648954714 1.8245163694611242 0.0
3.3882919675149759 1.3585266826122184 0.0
3.2448827439200993 1.6730291269970698 0.0
3.1639439772454967 2.3585928666643645 0.0
3.2643838468173980 2.5001690079823513 0.0
3.0476056134296390 -0.4795662702540420 0.0
3.6095962457496857 3.8493393639162332 0.0
2.5049348983356152 2.1175580797050135 0.0
2.9338257269187689 1.4021001143878931 0.0
3.8924436930560873 0.5456982362889365 0.0
2.4043287462611129 0.3750828672876003 0.0
3.6338215552108388 1.2069913950978650 0.0
2.8008866826583638 2.6375926436957373 0.0
3.4917200958077110 4.5879972404309468 0.0
3.6268719127677307 2.6430894574596868 0.0
2.2919478636090846 1.3483816535724804 0.0
4.3168277439384406 2.3198331744043719 0.0
3.9926762367682560 2.5808889075923456 0.0
2.8636013849092055 -0.7884110877517366 0.0
4.1069441173182222 1.7611749745236438 0.0
2.5211915137068641 2.0438915598653815 0.0
2.5583611076918342 1.0616739862068609 0.0
3.9105008893820066 2.7257940014308226 0.0
2.7030608564341998 1.3455117338800100 0.0
3.8197086411208607 -0.3848234973817006 0.0
1.9938570423495254 1.4548421063963430 0.0
2.2946958993402888 0.6220672856111836 0.0
2.1405999170657286 0.0539578847277543 0.0
4.1406843345429660 2.4597480911258018 0.0
2.6186824340074306 1.7024078580238351 0.0
2.7984768178391999 2.4515225123163447 0.0
2.9347430554450438 4.7381319119839942 0.0
2.3959618672988081 1.2785445142888745 0.0
2.5248689311930992 2.8809929111356580 0.0
2.1715976490491933 1.6484178127843450 0.0
3.2848450574964376 3.5022523687844420 0.0
1.8226061829977858 1.7694454797164731 0.0
3.9464613961874391 -0.0515854525283259 0.0
3.5033236313457481 2.2857924164317351 0.0
3.8457561696058136 2.5650114824248180 0.0
3.9874726765394755 1.9600667309092938 0.0
4.0337560124901515 2.0561937100538881 0.0
3.6600327756959206 0.4662478954690164 0.0
3.0776226395242223 1.5680974433569002 0.0
1.6461403749739667 1.6790475121654074 0.0
2.2811208427475282 1.0810924201060783 0.0
2.8693094794040790 -1.0432881871360438 0.0
3.7036901415779617 2.5525234221695769 0.0
3.8893108655999655 1.9704016789370082 0.0
1.4715073408535775 0.0828293569126558 0.0
2.0136220114135264 1.0828877577387146 0.0
3.7328255797420002 3.1715657779604052 0.0
1.1359667358012246 0.4472371278451430 0.0
1.8313791407447153 3.2599860103217217 0.0
1.4991364642624270 0.8712192793639157 0.0
3.9613792748740422 1.5355941418835306 0.0
1.8405317905874290 2.2639891577409852 0.0
1.1021455591310212 0.7355192649825780 0.0
2.1203418432234842 2.3899565109131369 0.0
2.7845574003801103 3.3821783518681037 0.0
3.3828151442843670 1.0869157689848454 0.0
3.7465862467379898 0.6612016657176433 0.0
3.5862581193384973 2.2444468650383094 0.0
3.7616834457491994 -1.1066879032508117 0.0
3.3197095532709984 1.7847727474264119 0.0
4.0295637474580541 1.7519633403899129 0.0
1.6588190214052874 -0.3290694132703468 0.0
1.4154419965052141 1.5117036458869053 0.0
3.4440774607370015 2.6010736179146590 0.0
1.2859009762324580 1.7997862226828312 0.0
3.5955625673031166 2.7400198252024750 0.0
3.8956721037054916 1.0641985453328602 0.0
1.4916216880329458 0.7896901200235522 0.0
1.3728046080222984 1.3119556318216616 0.0
3.9067087208522495 -0.8867326997430706 0.0
1.8247505924980498 1.8427645737819529 0.0
1.5263696171995729 0.8475029565385424 0.0
1.3010984229265037 0.1600509386913007 0.0
3.7087260463018805 2.3722047090069331 0.0
3.9283499367355454 0.1857075813121186 0.0
3.1851647328752244 -0.2776201045057361 0.0
1.5934204488046748 3.1018873766553603 0.0
1.2083523595009187 1.0263595723795094 0.0
4.1068649993635500 2.1284468813033350 0.0
1.3136902384179723 0.7961502251523653 0.0
1.5293124676820811 2.7802668710238283 0.0
3.6509378089008555 2.0821698794677492 0.0
1.3531191793264974 -0.2625329521656475 0.0
3.3837102079397834 0.7983732126927178 0.0
3.1596497928950238 2.5044719147330978 0.0
2.6863750150245940 -1.4066485295265474 0.0
4.0563867834738740 2.5967669536308891 0.0
3.4356541882202842 1.9328298799867383 0.0
3.8154002595664660 0.2391730314969091 0.0
2.0001032747036955 3.0559741766521005 0.0
3.6259136935747671 3.6746402673805516 0.0
2.4431025208941715 4.0337857700492039 0.0
0.8479860651326911 0.8059174090939001 0.0
3.7485690736233774 2.5552986096418158 0.0
1.0863487434792063 0.5741608943250656 0.0
2.9232005611555580 0.2655796164934581 0.0
2.1171923509446353 2.2082462088986921 0.0
3.5905823463058071 2.8385697566636625 0.0
3.0684223349080266 1.0440096606412455 0.0
0.8381675833705127 0.6044546330761108 0.0
4.1375340496413040 2.0236682027925692 0.0
4.0592415942883697 -0.4034643075616012 0.0
3.5692353752911452 1.6096514014934480 0.0
2.2803268111459194 1.5737870624958168 0.0
0.7641786060361635 3.4574472044707560 0.0
0.9926596581048432 0.8552216091941538 0.0
4.2245286034534288 1.9709289402596277 0.0
1.3062633913166306 1.0430874969185666 0.0
1.2192082183695050 0.4733338542964275 0.0
3.1564331780473736 1.8687082114056937 0.0
1.4135445484538958 -0.2940085481550816 0.0
4.2422713835530894 2.4319915890208934 0.0
3.7001780035867791 1.6465832580131572 0.0
3.1500997697787589 2.2149191479447818 0.0
2.8949801287442312 3.0043129206447285 0.0
3.9268598964915928 3.2640986542975536 0.0
0.9826301760117988 0.3046398250155582 0.0
1.7261765213487426 2.4099892312937810 0.0
4.0284002373039476 2.5478054932639105 0.0
3.6899661160215729 -1.3899169444946489 0.0
1.2131525319728247 3.3076046842565781 0.0
1.1750888142184035 0.4778852958431539 0.0
0.9683243426865696 0.3865123150791763 0.0
0.9344680686485290 0.0556598954254323 0.0
4.0945092110841834 2.4606447012461441 0.0
3.8237344567626761 2.8466356211931254 0.0
2.7817326719920241 1.6433398060840283 0.0
1.0309599684827078 1.4853354480740284 0.0
3.9330101594762170 2.6460831953635138 0.0
4.1338639721025485 2.3356223969882759 0.0
4.2840003061599248 2.1720963284514379 0.0
4.0601512793797863 1.8825620201380080 0.0
1.6335673185930373 2.3202274679845734 0.0
3.8038257597222045 -0.1241917855501120 0.0
1.2360292526922840 0.6189628993605908 0.0
3.8739641706437093 1.5107953111911316 0.0
3.9497173153069278 1.3898184018472921 0.0
2.5654053768937994 1.7672435271871778 0.0
3.1001743755126481 1.5107858482723417 0.0
3.0791207832665695 2.1003110466509605 0.0
3.0514677513439481 1.9365208150452724 0.0
3.3558452670454146 1.7434495839503903 0.0
4.0037744617929265 2.2528093110202563 0.0
1.0830654766175227 0.1526080764301716 0.0
2.8663403979820057 2.1233734592708453 0.0
2.4622187345261954 0.8538960212763805 0.0
2.7537183009129937 2.0068270846601397 0.0
2.4835810636180415 -0.0265999447309241 0.0
4.1036164360802010 -0.7072456050394940 0.0
0.9398453102592454 0.9569326515883675 0.0
2.3130131688041118 -1.0761016795833347 0.0
4.0353888418204091 2.5844923908921831 0.0
2.8347064900210950 1.4249601811244712 0.0
3.1098927365170677 1.8266041321413620 0.0
3.4916694039648171 3.9779832096304775 0.0
0.5275804152307739 1.6423760005546626 0.0
3.7374391140355532 2.7416975684338993 0.0
1.5465721854306729 1.8405686897185995 0.0
2.9287079864282632 -0.6854901987790953 0.0
3.7944928345056606 0.8255257039177440 0.0
3.6020560489088225 2.4659918110935806 0.0
0.6407233617154271 0.5083813439789604 0.0
1.2005800359159340 2.2396711409966161 0.0
3.1056280635682980 2.7539794926234675 0.0
1.7180517541014848 2.9227672159944320 0.0
1.0168836565001806 1.8900226625933279 0.0
0.8193774532073070 1.5830473876012954 0.0
1.6637372395732928 3.0813956268930234 0.0
1.4465462221129450 1.1747168319261949 0.0
2.1902824255907039 -1.4149321968571926 0.0
2.1281975085156812 1.5884111244734309 0.0
0.6770458388600773 0.2967506053178804 0.0
0.7656664070939956 0.5807618378984405 0.0
3.9176847588437509 3.4632706473844022 0.0
1.2712293943743744 -0.0763248916056026 0.0
3.3214632637491652 0.8361960918881490 0.0
4.0100930500530758 -0.1257459487508446 0.0
3.8686470027661413 2.3912459765672582 0.0
1.1250736767744147 3.3292141478975452 0.0
2.5811079933424854 0.6954051877033934 0.0
0.6055015736487107 0.3650682228528586 0.0
3.4837919728066598 -0.4459182321569708 0.0
3.6783263774685722 2.6520543957088085 0.0
0.7706016429472258 -0.0125927367344475 0.0
2.6236305011076397 -0.2473427182401965 0.0
2.6854791957677491 1.4418151317786698 0.0
3.6938755397014558 -1.7298676082199682 0.0
0.8249991476645555 0.1074401613657590 0.0
2.4596542013106855 1.5527611266228498 0.0
2.8548165321582153 2.4119314562449414 0.0
2.2228264587684414 1.9553927020054966 0.0
3.8928270858174181 2.5344766131735388 0.0
3.7782536041947141 1.9125174239213680 0.0
2.5306181324962269 1.0984235412109846 0.0
3.7084891924481034 3.7867241703522434 0.0
4.1718746462104814 2.0818688737153028 0.0
0.9427348982635581 0.5974079163824979 0.0
3.1438121189288499 3.2371438423385630 0.0
2.7291053755449788 1.6585781788121723 0.0
4.2084049892961257 2.1701140925984252 0.0
4.1325117885408620 1.9826848722356742 0.0
3.0891698149980735 2.1931576397504036 0.0
3.7240764353690787 2.5716112071954083 0.0
1.2619692963386600 -0.7691498455635881 0.0
3.3472154212420473 0.6506450308830343 0.0
3.9424910802945732 0.1706889241999228 0.0
1.6698306054370344 4.0683855763265262 0.0
2.2574612324873020 1.8726360149068899 0.0
0.7108823935666857 0.6021698091516624 0.0
3.9759172309176845 2.5905387136495550 0.0
4.2700021660290259 2.1102437075057101 0.0
3.9196098159433372 1.1732333945414146 0.0
3.8139191092847673 2.1942133618617525 0.0
3.8193808708676751 2.9091739839630892 0.0
3.4783187248276977 0.1085347090770557 0.0
3.9094714428308390 3.4751997922469990 0.0
3.7743643246264513 2.4566223910587865 0.0
3.6998677415938448 1.9158625132484808 0.0
3.5989174581060484 1.7398535299363709 0.0
2.8331064437068765 1.8016432259804802 0.0
3.4131779079977127 1.3749463260657853 0.0
3.2108730110091992 1.6593136223582530 0.0
3.1500896946885444 2.3351424352152081 0.0
3.2894792064663836 2.4963441487657456 0.0
3.0477847309163177 -0.4790231905825750 0.0
3.6096403930592866 3.8493545326271441 0.0
2.5341152309548125 2.1274089265171892 0.0
2.9027499026277823 1.3956586495799828 0.0
3.8843976066010018 0.5556419865919298 0.0
2.4156849925517867 0.3828427301813349 0.0
3.6157547149689755 1.2153229096307760 0.0
2.7989923981609581 2.6285045350753165 0.0
3.4915979639986023 4.5881088869701223 0.0
3.6351741226257204 2.6400231220109753 0.0
2.2609256996831713 1.3302906415459854 0.0
4.3167741647311360 2.3227754110849701 0.0
3.9893387918235605 2.5725974338416742 0.0
2.8635228532703105 -0.7885762620338588 0.0
4.1038872598216063 1.7779561830268296 0.0
2.5126120576412014 2.0289154625951462 0.0
2.5890142772059761 1.0758938072091808 0.0
3.9202174109413384 2.7105537699325626 0.0
2.7374136367141761 1.3634691868090045 0.0
3.8191770994838841 -0.3824318975514298 0.0
1.9716602278640067 1.4361109155239256 0.0
2.3153198741514927 0.6301329352156730 0.0
2.1424815784249538 0.0565753477603548 0.0
4.1551468575013759 2.4690237279847951 0.0
2.5947426095136730 1.7014146277358180 0.0
2.8152289130304560 2.4505995618944958 0.0
2.9347189155342437 4.7381521376336337 0.0
2.3649302409403252 1.2623751583482890 0.0
2.5254312871264188 2.8803664190133542 0.0
2.2006983299383367 1.6681635942726289 0.0
3.2856819399644182 3.5015001325232782 0.0
1.8469613258432067 1.7728594877282584 0.0
3.9425170213831904 -0.0465276954591391 0.0
3.4845445232638026 2.2627014737494862 0.0
3.8692055570251558 2.5683487956381756 0.0
4.0097776170679076 1.9741420784870216 0.0
4.0084031638785609 2.0611041738432641 0.0
3.6588616104933358 0.4769989992027434 0.0
3.0611217051950770 1.5720142283259435 0.0
1.6456679727070911 1.6767847615076930 0.0
2.2512310407259566 1.0698855439224773 0.0
2.8692640351587952 -1.0434197399486409 0.0
3.7268732057386655 2.5513293501066050 0.0
3.8594329102941658 1.9623315003735768 0.0
1.4778148280884580 0.0874480015246639 0.0
2.0416530881193928 1.0971985316052135 0.0
3.7367993140865945 3.1631574319393385 0.0
1.1537349310445733 0.4545288582617180 0.0
1.8313749961735748 3.2599923248166762 0.0
1.4769721326292851 0.8569280822930974 0.0
3.9463733928425473 1.5498002667554827 0.0
1.8406259769411772 2.2642960335522666 0.0
1.0913367622729528 0.7256729998764215 0.0
2.1239576766477013 2.3887470182312209 0.0
2.7842195670789969 3.3821291396834283 0.0
3.3985235225813910 1.1020578588484409 0.0
3.7365732487661667 0.6673398725570273 0.0
3.5634563284729275 2.2250720212218651 0.0
3.7619092443291882 -1.1069290223422918 0.0
3.2865444013873786 1.7686391004415674 0.0
4.0429240297794680 1.7677826271661699 0.0
1.6584810478691063 -0.3290977522713044 0.0
1.4354857979375151 1.5199618136476656 0.0
3.4403861265807878 2.5832505361546025 0.0
1.3004583319605512 1.8006990133975915 0.0
3.6118670293461790 2.7317624067746622 0.0
3.8840794162721575 1.0776967849689478 0.0
1.4681534278628858 0.7781629542349454 0.0
1.3680606206495685 1.3041166068811978 0.0
3.9070050616793699 -0.8863703779429786 0.0
1.8250246968029780 1.8429578433822740 0.0
1.5089702479852996 0.8444835660502353 0.0
1.3124731921831108 0.1648728539536540 0.0
3.6911192150206458 2.3538217593578095 0.0
3.9228165110270896 0.1896670346572420 0.0
3.1859336850021336 -0.2733368591871605 0.0
1.5934207720119660 3.1018863866921298 0.0
1.1893937995649921 1.0097223564554301 0.0
4.0850959026789511 2.1229371335062730 0.0
1.3368664199473206 0.8096914128719360 0.0
1.5291009350062357 2.7801296412381764 0.0
3.6828366736609359 2.1002030750112168 0.0
1.3531973358894496 -0.2618495636786741 0.0
3.3914755558214504 0.8118903837703114 0.0
3.1579929233956197 2.4897376532515252 0.0
2.6863721583358831 -1.4066650912198919 0.0
4.0699316560360028 2.6026404154819915 0.0
3.4048385834162960 1.9328432869751400 0.0
3.8118574403714973 0.2469179811683467 0.0
2.0000801778791923 3.0560602495591636 0.0
3.6268441850192410 3.6731773056546655 0.0
2.4430125792969077 4.0338124936171882 0.0
0.8633424605316508 0.8182595692166039 0.0
3.7440709586781264 2.5350488144214633 0.0
1.0667704925531583 0.5640478761084421 0.0
2.9288194383512094 0.2739151669745883 0.0
2.1269435838358506 2.2078531508927588 0.0
3.6029274077959879 2.8318429272821404 0.0
3.0571305492410343 1.0483784813413881 0.0
0.8263861919236658 0.5945512505627211 0.0
4.1575216588323629 2.0371852658059431 0.0
4.0577288253104120 -0.4015894265656397 0.0
3.5967044753466140 1.6263378735482232 0.0
2.2675293454472132 1.5744052492237792 0.0
0.7641786060361635 3.4574472044707560 0.0
0.9851120335565082 0.8462692225574120 0.0
4.2172469317918164 1.9823702942809709 0.0
1.3047668424561663 1.0397325043397563 0.0
1.2420804952626610 0.4834145910963675 0.0
3.1233798286836647 1.8494919696679153 0.0
1.4133684423880206 -0.2940410348583252 0.0
4.2397302446373688 2.4325651245300675 0.0
3.6762409152394686 1.6548615256308341 0.0
3.1821146913010301 2.2298659032274979 0.0
2.8942328917945912 2.9977182538910929 0.0
3.9324683924984241 3.2604877281621523 0.0
0.9972299403718465 0.3097500769491220 0.0
1.7261990756094290 2.4101777977218966 0.0
4.0330024980315207 2.5403524979284242 0.0
3.6900522364693158 -1.3901343712111638 0.0
1.2131529005959611 3.3076046858926929 0.0
1.1948234239890392 0.4865285647109641 0.0
0.9491262928248221 0.3780495757309122 0.0
0.9427980436379444 0.0581793143852967 0.0
4.0895887862772762 2.4535835151195862 0.0
3.8325741265086890 2.8305430521911017 0.0
2.7507433051302543 1.6227273072208743 0.0
1.0309937963855444 1.4843935434242681 0.0
3.9461213293864672 2.6337924561349251 0.0
4.1521462658831592 2.3478932916486164 0.0
4.2870460602412548 2.1781833425938131 0.0
4.0407540623014802 1.8946058127187440 0.0
1.6335577560102588 2.3202477669172348 0.0
3.8024122785041619 -0.1184739251457838 0.0
1.2187083684174138 0.6124040940988619 0.0
3.8853118932578510 1.5277489824199275 0.0
3.9503277512027473 1.4085715433070565 0.0
2.5531463145115190 1.7506394682716642 0.0
3.0667169348354535 1.5026748394415750 0.0
3.0596309593943309 2.0774385841844234 0.0
3.0864224434033396 1.9570586579970843 0.0
3.3883528333556754 1.7600427280199404 0.0
3.9795808867711830 2.2443665583604986 0.0
1.0863128069083037 0.1543370368684631 0.0
2.8959664217252046 2.1248781362127649 0.0
2.4870859262441600 0.8668163409747173 0.0
2.7287774645717797 1.9849657095735473 0.0
2.4875765285570535 -0.0208667680006826 0.0
4.1034046426759323 -0.7066218631930397 0.0
0.9400309841737273 0.9569058393735331 0.0
2.3130133886446802 -1.0760986526658411 0.0