# vtk DataFile Version 3.0
LucasCarvalhoTCC Results
ASCII

DATASET POLYDATA
FIELD FieldData 1
TIME 1 1 double
7.300000000000001

POINTS 531 float
0.02430399999999999 0.16425 0.0
0.5913384 0.481878 0.0
1.30475 0.591832 0.0
0.774126 0.951272 0.0
0.04779564148251592 0.1966194329439859 0.0
0.0726092153537953 0.2279866320496896 0.0
0.09876577335895967 0.2582426022760065 0.0
0.1262817198684718 0.2872673048853742 0.0
0.1551671626852806 0.3149288071400502 0.0
0.1854238368919928 0.3410826624766006 0.0
0.2170424591499632 0.3655716640299072 0.0
0.2499995164635996 0.3882263409476824 0.0
0.2842534387828506 0.4088665906889567 0.0
0.3197403359862048 0.4273050841371062 0.0
0.3563695945475563 0.4433531534921038 0.0
0.3940201673622058 0.4568300511916809 0.0
0.4325386107291805 0.4675762214989666 0.0
0.4717406913237268 0.4754709112408955 0.0
0.5114182513144845 0.480453442081874 0.0
0.5513531678859215 0.4825464217651069 0.0
0.6182637923774223 0.5096055604109244 0.0
0.647389101376845 0.5350126187545199 0.0
0.6784752958296183 0.5579802184492302 0.0
0.7112421079139344 0.5784810076698811 0.0
0.7454110434104482 0.5965507527581431 0.0
0.7807301979183381 0.6122562812860965 0.0
0.8169827939052532 0.6256694297140926 0.0
0.853985522124928 0.6368498290413532 0.0
0.8915818964261243 0.6458353363890481 0.0
0.9296339776508085 0.6526379336565091 0.0
0.9680139759519513 0.6572432424840469 0.0
1.006596418266983 0.659612648128084 0.0
1.045251165872634 0.6596877658251245 0.0
1.083837680945672 0.657397570658483 0.0
1.122201320191055 0.6526688455666412 0.0
1.160173053543044 0.6454405726452737 0.0
1.197574286953346 0.6356824063786186 0.0
1.23422961949795 0.6234159704281613 0.0
1.26998758503999 0.6087366500005643 0.0
1.285086682927543 0.6256533177085738 0.0
1.263669745906668 0.6583917156018083 0.0
1.240480125919214 0.6898988493917133 0.0
1.215532715641304 0.7200329197235763 0.0
1.188869833862339 0.7486599839005789 0.0
1.160556835593143 0.7756559317113654 0.0
1.130680194163798 0.8009104211039757 0.0
1.099347083827048 0.8243335727704395 0.0
1.066684425336412 0.8458643604021228 0.0
1.03283497048792 0.8654772531176074 0.0
0.9979492572630678 0.8831824104874066 0.0
0.9621749986495024 0.8990166556695112 0.0
0.9256475378616493 0.9130272060048579 0.0
0.8884846540507749 0.9252538945090274 0.0
0.8507866567183312 0.935715378288671 0.0
0.8126405010322847 0.9444016349017643 0.0
0.7365055179612304 0.9396161853607135 0.0
0.699310855231089 0.9266666891603924 0.0
0.6626179171945521 0.9123577070090924 0.0
0.6264901449910028 0.8966765244755546 0.0
0.5909789825447118 0.8796450886595113 0.0
0.556124897941028 0.8613059841617771 0.0
0.5219601957009091 0.8417124664434518 0.0
0.4885110616878257 0.8209207172498462 0.0
0.4558007060429968 0.7989848675704875 0.0
0.4238520247653796 0.775953675763176 0.0
0.3926900138417566 0.7518687036338616 0.0
0.3623437622133722 0.7267636709390595 0.0
0.3328479550295906 0.7006647540504483 0.0
0.3042438201183181 0.6735915983461908 0.0
0.2765795358619001 0.6455588748284606 0.0
0.2499101143933102 0.6165781952942546 0.0
0.2242967982692083 0.5866601984136335 0.0
0.1998060807431611 0.5558166834807132 0.0
0.1765083808984156 0.5240625786010467 0.0
0.154476512720734 0.491417660368959 0.0
0.133784033184808 0.457907916333494 0.0
0.114503564227142 0.4235664945146766 0.0
0.09670517293008124 0.3884342245925089 0.0
0.0804548910754031 0.3525597611689231 0.0
0.06581337946329963 0.3159993090744527 0.0
0.05283482490365372 0.2788161107032479 0.0
0.0415660226296666 0.2410796291505872 0.0
0.03204569406625649 0.2028646095712164 0.0
0.5272009874003867 0.6419624505772817 0.0
0.7421848286576707 0.7716726266421574 0.0
0.8789503364783713 0.7829234141383637 0.0
0.6149390992905563 0.7449438030688011 0.0
0.4064556042659638 0.5942834991165423 0.0
0.9875021850865396 0.7666507358101158 0.0
0.3188065960661005 0.539594034984892 0.0
0.61365100263957 0.6399487878797632 0.0
0.8049090660915541 0.8464379870891131 0.0
0.7099820328572021 0.6828840522539854 0.0
0.5239467234991928 0.7406922291088611 0.0
0.8154056325591208 0.7211774015928547 0.0
0.6676178829014909 0.8152713180209475 0.0
0.4416080359619968 0.674360953773491 0.0
0.489443615375965 0.5654986742123573 0.0
1.076665773779852 0.7387182918829318 0.0
0.250390543112057 0.4877450112830265 0.0
0.5736819937919005 0.5790366884881447 0.0
0.7263706755366466 0.8615301097563091 0.0
0.940143307772686 0.8233944909985552 0.0
0.927065543677544 0.7236459161626674 0.0
0.8744389806957806 0.8609114380468947 0.0
0.336888362650554 0.6081958070931937 0.0
0.2030757334857187 0.4383942902513459 0.0
0.3861483329720647 0.5255533415902591 0.0
0.5621001921466506 0.7923778419149285 0.0
0.6822897332295245 0.7428043323059399 0.0
0.5764061681675353 0.6881266532454204 0.0
1.129195449682892 0.7163224153578123 0.0
0.8157794419559141 0.7831214907157077 0.0
0.3806644703311284 0.6554275822782399 0.0
0.7695737871052837 0.669593045341503 0.0
0.4699375460410929 0.6217118815516158 0.0
0.6830867370872363 0.630350317562806 0.0
1.040416897214502 0.7929392348941093 0.0
0.4604428393605979 0.7321209818568342 0.0
0.8729552856459739 0.7015083313474691 0.0
1.017010765275644 0.7166925631396708 0.0
0.6458785458483771 0.6946878992565794 0.0
0.7733575582969163 0.8941098392103913 0.0
0.4457537579383052 0.5273353624588528 0.0
0.163830623786951 0.3903175742448083 0.0
0.6095823984734953 0.8256600013628639 0.0
0.2618074352614998 0.5435604438425528 0.0
0.6287880420949764 0.5875838132975476 0.0
0.3100402147222924 0.4835410260423071 0.0
0.5422177893302824 0.5343158927797464 0.0
0.9964262112680041 0.8213447667248638 0.0
0.4971609598823845 0.6906859160718212 0.0
0.5740517260168769 0.633982031239429 0.0
0.7423299505107201 0.7218768583704394 0.0
0.767147744476665 0.819658485932403 0.0
0.9427329070375209 0.7774595780066723 0.0
0.8375285793481674 0.8869398470561132 0.0
0.2879426409425497 0.5872676364411625 0.0
0.6797562629663748 0.8647676397847667 0.0
1.171674168522591 0.6949964056806914 0.0
0.5261010885606964 0.6055079299963303 0.0
0.7081534744446967 0.8078672678314597 0.0
0.9681672688626206 0.705385299758921 0.0
0.7364069054947873 0.6432919177737106 0.0
0.363826821075015 0.5678764295233764 0.0
0.826170216989844 0.6605791783255148 0.0
0.1284439337099834 0.3602715082199688 0.0
0.518140828090112 0.783905985497134 0.0
0.8452908336054504 0.8167586152211004 0.0
0.2015204468558833 0.492088055688788 0.0
0.4005883523205732 0.7121294304856254 0.0
0.3551392316798573 0.4864133323669936 0.0
0.2501727034998737 0.4443035857235296 0.0
0.857938396055507 0.7390317828783199 0.0
0.9245301815433076 0.8668102132501951 0.0
0.5702050292970205 0.7323438487067678 0.0
1.111607633075016 0.759318252473435 0.0
0.6317193755596126 0.7853891653733797 0.0
0.7921381265818805 0.7497379312370454 0.0
1.088942426366261 0.7015435214091311 0.0
0.5818207607488639 0.5352340257544296 0.0
0.4203532416309484 0.6369649631143086 0.0
0.4854818714173937 0.5131439318707094 0.0
0.4475429831528036 0.5690430472086269 0.0
0.8968753306595262 0.8225547516037004 0.0
0.6339557898063448 0.8543470494763272 0.0
0.3416564411796998 0.6516449771136894 0.0
1.082970576264455 0.7856036465430698 0.0
0.2255204648032354 0.5229464838393291 0.0
0.7335043541589261 0.9012744999286941 0.0
0.9097052989734319 0.6921177492721042 0.0
0.5363428275528405 0.6992389299864537 0.0
0.9657777897300287 0.8588269742066746 0.0
1.025947476617909 0.7556651119714124 0.0
0.1090829970454354 0.3226173037985549 0.0
0.4836644525169279 0.7663103281018557 0.0
0.6910856326166581 0.777867529208468 0.0
0.6694391877434097 0.5946719355048008 0.0
0.2954883530575775 0.4501042133334518 0.0
0.6746032498128595 0.6643957640016517 0.0
1.054636636429828 0.6974583960183274 0.0
0.8939255235163368 0.7470597914537064 0.0
0.3749741568555516 0.6190655430398917 0.0
1.204101441114554 0.6801433534918062 0.0
0.6130053345415899 0.6785345531932346 0.0
0.7679719108452487 0.8562682874000032 0.0
0.9710820219997449 0.8008372590855476 0.0
0.1608022352294362 0.4242591696906621 0.0
0.2865399820604418 0.5141369963640697 0.0
0.1962258775846918 0.4008383427744516 0.0
0.6210920174972845 0.5516143721732873 0.0
0.4843009180093644 0.6583977883024127 0.0
0.5695029195102991 0.8267073580550881 0.0
0.9562891163300477 0.7436031251145003 0.0
0.4174190173896447 0.5044019081507806 0.0
0.410860431802698 0.5535781448116232 0.0
0.8709320861791604 0.9002602580953145 0.0
0.427354757192076 0.7399041791280969 0.0
0.7107884943357746 0.7172753954970394 0.0
1.030382288537246 0.8267335242583146 0.0
0.7737440530215844 0.7115751739064536 0.0
0.8042035044852396 0.9123190309183211 0.0
0.0480920891272324 0.2181807374272496 0.0
0.3695079235280397 0.6886893012630373 0.0
0.773516204411121 0.7830673827025234 0.0
0.302776671534508 0.6210168062901616 0.0
0.7150573728414059 0.6149413270404035 0.0
0.5863276441271683 0.769748656022605 0.0
1.143752049005473 0.6780480059671409 0.0
0.6477132714923303 0.7318578097016951 0.0
0.8380052680878572 0.8531154611905379 0.0
0.5966224054445893 0.6051703156405629 0.0
0.3207240819522855 0.5772784374275386 0.0
0.3520131451607586 0.5263918604440553 0.0
0.8573528491808811 0.6709738722470224 0.0
0.1797236573643203 0.460867988842514 0.0
0.5540828191547277 0.6661566975721369 0.0
1.158039843450239 0.7357536542887966 0.0
0.08638006908591334 0.286237566592474 0.0
0.790861820497242 0.6466611559014377 0.0
0.5362079962218838 0.8121454698907893 0.0
0.9405172130232713 0.6862060282668497 0.0
0.6039359324506977 0.711463595189489 0.0
0.4440093493753478 0.6096873538428137 0.0
0.5500746279087338 0.7620941994763282 0.0
0.2578504496023611 0.5739900063885278 0.0
0.502526452350101 0.6209820553182169 0.0
0.6799833858912959 0.7033681517905728 0.0
0.7183487148906835 0.7518430858176317 0.0
0.8006701240044786 0.8118713608014352 0.0
0.1304684854221093 0.3934039266496895 0.0
1.00789495394612 0.7937868725857601 0.0
0.696960396255943 0.893370944718147 0.0
0.8258315165019564 0.7538365084989149 0.0
0.8462950259502577 0.775614153529746 0.0
0.4082018839227037 0.6749460331934272 0.0
0.7025889307788081 0.8378536687159448 0.0
0.4666676520109517 0.6984557076050861 0.0
[...]
POINT_DATA 531

VECTORS Velocity float
0.0000000000000000 1.0000000000000000 0.0
0.0000000000000000 1.0000000000000000 0.0
2.6381954061129318 -0.9593259703502908 0.0
1.7944285294509119 1.0229657900489391 0.0
0.0000000000000000 1.0000000000000000 0.0
0.0000000000000000 1.0000000000000000 0.0
0.0000000000000000 1.0000000000000000 0.0
0.0000000000000000 1.0000000000000000 0.0
0.0000000000000000 1.0000000000000000 0.0
0.0000000000000000 1.0000000000000000 0.0
0.0000000000000000 1.0000000000000000 0.0
0.0000000000000000 1.0000000000000000 0.0
0.0000000000000000 1.0000000000000000 0.0
0.0000000000000000 1.0000000000000000 0.0
0.0000000000000000 1.0000000000000000 0.0
0.0000000000000000 1.0000000000000000 0.0
0.0000000000000000 1.0000000000000000 0.0
0.0000000000000000 1.0000000000000000 0.0
0.0000000000000000 1.0000000000000000 0.0
0.0000000000000000 1.0000000000000000 0.0
0.0000000000000000 0.0000000000000000 0.0
0.0000000000000000 0.0000000000000000 0.0
0.0000000000000000 0.0000000000000000 0.0
0.0000000000000000 0.0000000000000000 0.0
0.0000000000000000 0.0000000000000000 0.0
0.0000000000000000 0.0000000000000000 0.0
0.0000000000000000 0.0000000000000000 0.0
0.0000000000000000 0.0000000000000000 0.0
0.0000000000000000 0.0000000000000000 0.0
0.0000000000000000 0.0000000000000000 0.0
0.0000000000000000 0.0000000000000000 0.0
0.0000000000000000 0.0000000000000000 0.0
0.0000000000000000 0.0000000000000000 0.0
0.0000000000000000 0.0000000000000000 0.0
0.0000000000000000 0.0000000000000000 0.0
0.0000000000000000 0.0000000000000000 0.0
0.0000000000000000 0.0000000000000000 0.0
0.0000000000000000 0.0000000000000000 0.0
0.0000000000000000 0.0000000000000000 0.0
2.6783032469184715 -1.7943089552492983 0.0
3.6706569703858145 -2.3036098810943715 0.0
3.7614581807327974 -2.2270141153082847 0.0
3.7625077111912155 -1.9757064973369520 0.0
3.8569774285465104 -1.7645013160003891 0.0
3.9685870081769314 -1.4705264796524731 0.0
4.0373131486579039 -1.3258459971711278 0.0
4.1804228072300988 -1.1091923162938293 0.0
4.1921213037867835 -0.8278025120092147 0.0
4.1901731653555991 -0.5684186481091358 0.0
4.0688212375696953 -0.2744163945308670 0.0
3.8509432460994990 0.0278003912177119 0.0
3.6556044324021415 0.2633799019451690 0.0
3.2789395166545061 0.5212062735301645 0.0
2.6324017031818108 1.0857367853006870 0.0
1.7679273375832874 0.9309224080041578 0.0
0.0000000000000000 0.0000000000000000 0.0
0.0000000000000000 0.0000000000000000 0.0
0.0000000000000000 0.0000000000000000 0.0
0.0000000000000000 0.0000000000000000 0.0
0.0000000000000000 0.0000000000000000 0.0
0.0000000000000000 0.0000000000000000 0.0
0.0000000000000000 0.0000000000000000 0.0
0.0000000000000000 0.0000000000000000 0.0
0.0000000000000000 0.0000000000000000 0.0
0.0000000000000000 0.0000000000000000 0.0
0.0000000000000000 0.0000000000000000 0.0
0.0000000000000000 0.0000000000000000 0.0
0.0000000000000000 0.0000000000000000 0.0
0.0000000000000000 0.0000000000000000 0.0
0.0000000000000000 0.0000000000000000 0.0
0.0000000000000000 0.0000000000000000 0.0
0.0000000000000000 0.0000000000000000 0.0
0.0000000000000000 0.0000000000000000 0.0
0.0000000000000000 0.0000000000000000 0.0
0.0000000000000000 0.0000000000000000 0.0
0.0000000000000000 0.0000000000000000 0.0
0.0000000000000000 0.0000000000000000 0.0
0.0000000000000000 0.0000000000000000 0.0
0.0000000000000000 0.0000000000000000 0.0
0.0000000000000000 0.0000000000000000 0.0
0.0000000000000000 0.0000000000000000 0.0
0.0000000000000000 0.0000000000000000 0.0
0.0000000000000000 0.0000000000000000 0.0
4.0108800692553146 2.6010999508011325 0.0
4.2963499570104311 2.1874585906213935 0.0
3.8990506525547990 1.1959124973490545 0.0
3.8288177973538682 2.2034544123159026 0.0
3.8216767007520596 2.9194448059355063 0.0
3.4082634772638851 0.0586214874726019 0.0
3.9090620087495731 3.4756548335977135 0.0
3.7932839554271682 2.4482483986766108 0.0
3.7681927816291307 1.9901818220849177 0.0
3.5823537312610298 1.7506393360073071 0.0
2.8308258431948596 1.7871171554398058 0.0
3.3274895658034280 1.3933616565941838 0.0
3.2049997953558242 1.6711627396832169 0.0
3.1597635002064530 2.3391877568998263 0.0
3.2709859417628482 2.5133996910346994 0.0
3.0106969946054880 -0.5086751064369278 0.0
3.6099420943167280 3.8487508903284180 0.0
2.5060571231762352 2.1143601482985628 0.0
2.9071897266877835 1.4151147945392908 0.0
3.9446875110193260 0.5319409672556739 0.0
2.2852431631977166 0.3605342467535487 0.0
3.7160826073064972 1.2402874289363959 0.0
2.7983638999007936 2.6291679824213663 0.0
3.4916472175689153 4.5880389244586146 0.0
3.6332361469290637 2.6432191201184363 0.0
2.2402579871281025 1.3167442467346633 0.0
4.3413864840300089 2.3677153507358786 0.0
4.0290849242610323 2.5793643327744111 0.0
2.8474740087303037 -0.7952172123545951 0.0
4.1165974415110886 1.8432212843782418 0.0
2.5144724207389726 2.0302359391307467 0.0
2.5315941586826507 1.0749507731288162 0.0
3.9393067327298996 2.7317430942480980 0.0
2.7179838322331729 1.3479299259389059 0.0
3.8244925718647731 -0.4519047671383825 0.0
1.9664135003037724 1.4288507886647988 0.0
2.1941102854463859 0.6090090517231298 0.0
2.0629893835648017 0.0326125819086604 0.0
4.1837778959900511 2.4854666578309961 0.0
2.6172071469984037 1.7246477956658990 0.0
2.8031487731120559 2.4564137732338294 0.0
2.9347176201410528 4.7381472121925663 0.0
2.3462081331937967 1.2525102026113626 0.0
2.5249642531908902 2.8794948973252459 0.0
2.1745433318426874 1.6412285785291463 0.0
3.2866488552102333 3.5017415050285345 0.0
1.8115818428516877 1.7688724161735307 0.0
4.0064765053525333 -0.1170098375609035 0.0
3.5039284478498320 2.2592553221146510 0.0
3.8983743265551163 2.5707147088512858 0.0
3.9926522355266720 2.0265314288922651 0.0
4.0608975828345892 2.1389163525630810 0.0
3.6116818858508415 0.4441075046594497 0.0
3.1453480900902946 1.6077178252779833 0.0
1.6449454876927592 1.6763683826309890 0.0
2.2359729900912546 1.0691070624909491 0.0
2.8642177656121461 -1.0497689672094561 0.0
3.7361622872156088 2.5619727725275818 0.0
3.8804770280563026 2.0036120275146052 0.0
1.3882538787465444 0.0687942534479906 0.0
2.0114583466683480 1.0991695726685113 0.0
3.7361000996333837 3.1668772198028168 0.0
1.0977726729129877 0.4415297531486850 0.0
1.8313765225022769 3.2599910969684123 0.0
1.4669865500182171 0.8475105482045253 0.0
4.0038423285010634 1.6025325290343415 0.0
1.8405834667188721 2.2640339161040788 0.0
1.0913073277682304 0.7245248529521809 0.0
2.1240607510260991 2.3893875087736327 0.0
2.7845916888075024 3.3820374276129734 0.0
3.2991178984940062 1.1049284736193956 0.0
3.8664013702133526 0.6451883018793237 0.0
3.5778824084464542 2.2203265695913079 0.0
3.7614636339672942 -1.1349342809709462 0.0
3.2786942254274902 1.7702048526813821 0.0
4.0165534859488048 1.8252993405539715 0.0
1.6339122757028994 -0.3358335343421651 0.0
1.4065974067810776 1.5075382471547187 0.0
3.4480357902074683 2.5901414705283963 0.0
1.2841754024763012 1.8027808795583911 0.0
3.6052957225087607 2.7490920520015183 0.0
3.9509074811414906 1.0947383926550658 0.0
1.4566981547760820 0.7727547640328130 0.0
1.3686557843757798 1.3047516861689918 0.0
3.9183327556899412 -0.9479975813223783 0.0
1.8248834856702516 1.8424808507457295 0.0
1.5112410498927931 0.8523531782956478 0.0
1.2229533294173858 0.1569076656804647 0.0
3.7169482588176166 2.3509694931467546 0.0
4.0636400640498902 0.1331711801920054 0.0
3.1219326834979348 -0.3288786333878891 0.0
1.5934211050699107 3.1018863462347688 0.0
1.1844079272281174 1.0026647503196475 0.0
4.1054897951048686 2.1672690259388387 0.0
1.3182785131143575 0.7952121820332502 0.0
1.5297255876790150 2.7802132493085221 0.0
3.6836306571714350 2.1034775159121457 0.0
1.3172959301702678 -0.2717398268338889 0.0
3.2883968257075145 0.8007246731716998 0.0
3.1582765701939381 2.4930843731901464 0.0
2.6856969389813430 -1.4079473798903899 0.0
4.1068216351341889 2.6156440589964611 0.0
3.4430148519300539 1.9864002422006408 0.0
3.8143468472882689 0.2011670014005628 0.0
2.0000827490151010 3.0560437660272362 0.0
3.6271979490419457 3.6726941298559641 0.0
2.4430232666277285 4.0338105706664384 0.0
0.8450610608674363 0.8000488663516783 0.0
3.7696285887768259 2.5452472369341401 0.0
1.0560858700789797 0.5583594704989192 0.0
2.8138553246788462 0.2400219990864434 0.0
2.1223849402386885 2.2106654216762842 0.0
3.5980142753581870 2.8410400086517229 0.0
3.1567560676604072 1.0499018302972922 0.0
0.8250046571353363 0.5918430731430396 0.0
4.1576590040078347 2.0750410253036580 0.0
4.1427303861608804 -0.4829533250981262 0.0
3.5441588946924938 1.6578634313451228 0.0
2.3057054951755487 1.5879196481304179 0.0
0.7641786048158757 3.4574472035220447 0.0
0.9856449669060896 0.8464412759284662 0.0
4.2483461552509025 2.0620617392287781 0.0
1.3045013801044467 1.0398458684475664 0.0
1.2243332238122702 0.4773658221923724 0.0
3.1134515633926467 1.8421807372710228 0.0
1.4045143045015662 -0.2957299188205494 0.0
4.2702413567014759 2.4585955570290388 0.0
3.7618228407123997 1.7047241942115214 0.0
3.1740519119902593 2.2118343614399194 0.0
2.8934683343163927 2.9980399175053671 0.0
3.9325498346303172 3.2621205988716566 0.0
0.9349665562529491 0.2970672672034961 0.0
1.7262047580317668 2.4101006254157982 0.0
4.0774718619150478 2.5444252584030176 0.0
3.6904724300249883 -1.4075101383969484 0.0
1.2131529157175966 3.3076045981858595 0.0
1.1521360908971208 0.4744862556937607 0.0
0.9405750845813480 0.3750345844675715 0.0
0.8744747001328195 0.0524025665460173 0.0
4.1249801381650464 2.4665400814846836 0.0
3.8392526098113642 2.8493750438959040 0.0
2.7401559808837592 1.6085795264228309 0.0
1.0306345206483738 1.4838819417618438 0.0
3.9694691518895002 2.6521968856732738 0.0
4.1684973315825768 2.3759313150175192 0.0
4.3041593697960856 2.2414205967430822 0.0
4.0953812522793047 1.9766176895227499 0.0
1.6335540344466555 2.3202449077923433 0.0
3.7992955531262314 -0.1924202286885963 0.0
1.2149605092877447 0.6139393727374963 0.0
3.8403987257665539 1.5638823125323194 0.0
3.9321870949096041 1.4446308710100426 0.0
2.5566716561464715 1.7488678964457018 0.0
3.0694991303754620 1.5256515629852607 0.0
3.0710433228696252 2.0749299768852700 0.0
3.0736256635953785 1.9404336196464742 0.0
3.3502939909436869 1.7882338580125379 0.0
3.9941736485245682 2.2727209333951359 0.0
1.0269866927455906 0.1394434753082389 0.0
2.8687470094436693 2.1275328196737089 0.0
2.3743946496290316 0.8513216500517778 0.0
2.7301380668820805 1.9775854278192033 0.0
2.3839835951638868 -0.0549287476957727 0.0
4.1621048875309388 -0.7885373606111095 0.0
0.9397656216526250 0.9564432670762298 0.0
2.3130287210214786 -1.0760352003225140 0.0
4.0938718740998752 2.5931400517081440 0.0
2.8458706716160851 1.4356908520223688 0.0
3.1424474519402072 1.8836686021725551 0.0
3.4917875207925722 3.9779385815960357 0.0
0.5212932611546249 1.6424508570709659 0.0
3.7540003486335389 2.7552013372226649 0.0
1.5514500284909201 1.8409506299995047 0.0
2.9064116682273022 -0.7073117048804716 0.0
3.7665591295726597 0.8289373568594909 0.0
3.6347111603119964 2.4725490413236364 0.0
0.6281614768026307 0.4954247175045093 0.0
1.2013232068115878 2.2394196513776974 0.0
3.1058002607503261 2.7503918991647240 0.0
1.7179472343566968 2.9227239337575135 0.0
1.0196022299488503 1.8921981936870755 0.0
0.8130152532830877 1.5837633692843325 0.0
1.6636989726028193 3.0813961272919306 0.0
1.4445559299805593 1.1863465486974474 0.0
2.1903539092341591 -1.4148401676731088 0.0
2.1104190684250819 1.5639877398930890 0.0
0.6576533467086845 0.2917052183364915 0.0
0.7645655155789413 0.5776819082041194 0.0
3.9217470378869828 3.4613927314884618 0.0
1.2590034460095783 -0.0790236823224719 0.0
3.4354230397899519 0.8310843187558258 0.0
4.1381886710438440 -0.2021392069382749 0.0
3.9143656142363166 2.4074491766501209 0.0
1.1250736229334137 3.3292141719053183 0.0
2.4623225316796882 0.6897564569534338 0.0
0.5874366255463411 0.3531247305014423 0.0
3.4496532415148620 -0.5054394676606457 0.0
3.6914147812968010 2.6417930350368386 0.0
0.7328336964534965 -0.0174383837763643 0.0
2.5620068673419967 -0.2815332666735311 0.0
2.6311195418084554 1.4163421688390754 0.0
3.6933425681437555 -1.7372530930053967 0.0
0.7777366724900008 0.1047315976277614 0.0
2.4027492937220800 1.5255356960099673 0.0
2.8554329080743193 2.4224107828646235 0.0
2.2151332520173121 1.9616406516259499 0.0
3.9244401650260810 2.5246418136307827 0.0
3.7745689395509565 1.9590878534088727 0.0
2.4774971273994919 1.1084066762846920 0.0
3.7093739128012122 3.7863866008063503 0.0
4.1913173618101744 2.1564240258789216 0.0
0.9321865935055370 0.5979315925202817 0.0
3.1439419127098591 3.2360142852903566 0.0
2.7165726210846723 1.6835956083841033 0.0
4.2219035712682764 2.2350541899197998 0.0
4.1371129037187915 2.0632726981419127 0.0
3.1137745710698748 2.1910359323719177 0.0
3.7466587715542485 2.5826594117122759 0.0
1.2602874750203412 -0.7700087136470422 0.0
3.2491755104198297 0.6411773269423856 0.0
4.0227240883336934 0.1183692172782830 0.0
1.6698183867472292 4.0683865531399839 0.0
2.2547306823112025 1.8644789225447786 0.0
0.7054086618392009 0.6015426526853187 0.0
4.0161182560139377 2.5969839484482913 0.0
4.2940374354291890 2.1912795577917392 0.0
3.8992102496049661 1.2012193557117530 0.0
3.8203657084148164 2.1984736087330199 0.0
3.8236877771249964 2.9156458779537777 0.0
3.4084032642449520 0.0604132501628499 0.0
3.9095731331819028 3.4745992680949582 0.0
3.8038115687904783 2.4533994913077226 0.0
3.7597921258561811 1.9941828529375567 0.0
3.5934842805460585 1.7579088678840902 0.0
2.8212194990072219 1.7785379046297003 0.0
3.3350823437953556 1.3998074568803991 0.0
3.1926233774737200 1.6666706022628266 0.0
3.1561941034461447 2.3309513852572041 0.0
3.2788206801553099 2.5113113602670709 0.0
3.0106775794536498 -0.5087387291544215 0.0
3.6098620259671108 3.8489242865305262 0.0
2.5162678014155002 2.1169904101420771 0.0
2.8965096737937275 1.4132279420516463 0.0
3.9430644655056466 0.5347396752583214 0.0
2.2877415681830771 0.3627753339003112 0.0
3.7111288069685084 1.2429739907444020 0.0
2.7982629947601674 2.6270644439782309 0.0
3.4916037777963305 4.5880854899675079 0.0
3.6349795163260725 2.6422429403320900 0.0
2.2289061773215892 1.3100784355170554 0.0
4.3410759999820163 2.3693769788124128 0.0
4.0283694386872559 2.5757714001041503 0.0
2.8474516345654401 -0.7952662589577872 0.0
4.1156081572077499 1.8499554469905692 0.0
2.5125351859591465 2.0259858303813525 0.0
2.5419554492031824 1.0803794866540279 0.0
3.9432052614682167 2.7256754536743246 0.0
2.7305698967880052 1.3544485140216957 0.0
3.8245818265823019 -0.4516602821884225 0.0
1.9592280525423467 1.4221579436423337 0.0
2.1996456510783973 0.6116715221589815 0.0
2.0630920512786766 0.0330415526505808 0.0
4.1890540933492932 2.4887991054235474 0.0
2.6093864774167006 1.7244936228622867 0.0
2.8075072454304859 2.4558166177438299 0.0
2.9347136701074348 4.7381525536247144 0.0
2.3348466380463595 1.2466556286633084 0.0
2.5251727427596466 2.8796323944500770 0.0
2.1850507945604063 1.6479435032385594 0.0
3.2865485151347698 3.5015327057354715 0.0
1.8193383890057904 1.7697073092096516 0.0
4.0059477628724816 -0.1160339708247715 0.0
3.4983932120874890 2.2503022900040168 0.0
3.9073413452120072 2.5709566286800887 0.0
4.0000679045511713 2.0326410164472581 0.0
4.0524592718338672 2.1415653821298855 0.0
3.6115207143648611 0.4470624994402767 0.0
3.1405300178123481 1.6091391119317229 0.0
1.6450661676414942 1.6761180653757015 0.0
2.2253036945488445 1.0653626191880063 0.0
2.8642108859152797 -1.0497966636263956 0.0
3.7445237701720560 2.5604013802491581 0.0
3.8697129234478775 2.0015788579639895 0.0
1.3893096867125649 0.0699134564145860 0.0
2.0214495749118591 1.1046454691866610 0.0
3.7371879729690924 3.1646505058761196 0.0
1.1031941596679000 0.4440363808293839 0.0
1.8313761179297576 3.2599919499156003 0.0
1.4589931927955486 0.8421963081012837 0.0
3.9995487007303407 1.6077269464594943 0.0
1.8406086451903838 2.2641747350572032 0.0
1.0882869001132578 0.7214946307954467 0.0
2.1245616934783689 2.3890000035898398 0.0
2.7844116133496368 3.3820563909440389 0.0
3.3035281230923799 1.1104372112274934 0.0
3.8641080551734115 0.6469263038201042 0.0
3.5698869888356870 2.2129854151524726 0.0
3.7615099428543139 -1.1350350293651519 0.0
3.2665116752041525 1.7645039923456780 0.0
4.0206362439168561 1.8319501844191921 0.0
1.6338048068937261 -0.3358927808191355 0.0
1.4132916708563248 1.5100033217059090 0.0
3.4476031314988012 2.5844662468635073 0.0
1.2881547764426684 1.8028362661562294 0.0
3.6100566058162555 2.7460278691103204 0.0
3.9481561952189512 1.0990976903345653 0.0
1.4481689361173156 0.7686577723785259 0.0
1.3677302239077378 1.3028649492563862 0.0
3.9184497178476958 -0.9480832107852420 0.0
1.8249785827960163 1.8426760513270357 0.0
1.5053588264754780 0.8514066488599863 0.0
1.2254832641499489 0.1584023414561890 0.0
3.7113171599755064 2.3437354963063379 0.0
4.0626538849640328 0.1340456592601598 0.0
3.1220306404485214 -0.3282209971982410 0.0
1.5934213422797321 3.1018860997528370 0.0
1.1778043691301161 0.9965673079999712 0.0
4.0973688539874615 2.1660836334267324 0.0
1.3267985830373799 0.8000891793142885 0.0
1.5294993203535210 2.7801520951852030 0.0
3.6952582428331615 2.1101093764001395 0.0
1.3171650905884695 -0.2716965501965022 0.0
3.2903174507986677 0.8051988905932852 0.0
3.1583246444367368 2.4890210853267742 0.0
2.6856971131011402 -1.4079467266030179 0.0
4.1120118578548226 2.6174189524023124 0.0
3.4328450168239919 1.9869965898983830 0.0
3.8137776548582343 0.2030282306800562 0.0
2.0000746573502113 3.0560638006318128 0.0
3.6272629491325681 3.6725436304138919 0.0
2.4430020765429021 4.0338194312027973 0.0
0.8504807399641690 0.8041996948397104 0.0
3.7690971048334805 2.5373147131729286 0.0
1.0488624037009764 0.5546458832405560 0.0
2.8149561901120581 0.2421525457489863 0.0
2.1245749647266403 2.2103529645478268 0.0
3.6011811391059672 2.8388219724910115 0.0
3.1536426088312792 1.0512103438232441 0.0
0.8213332375211697 0.5885309248414283 0.0
4.1644557720125492 2.0806546428854422 0.0
4.1426806345021419 -0.4827309555372118 0.0
3.5531134010571441 1.6646842267691386 0.0
2.3017419635514775 1.5881889604041284 0.0
0.7641786048158759 3.4574472035220452 0.0
0.9837829138641139 0.8439399697033633 0.0
4.2456888706619402 2.0672630451606167 0.0
1.3044279125368099 1.0392871220551241 0.0
1.2327238301147343 0.4811241133453294 0.0
3.1013996960887775 1.8351580975566288 0.0
1.4044815913316637 -0.2957390128166900 0.0
4.2692132445839874 2.4589315526071824 0.0
3.7548130991591040 1.7076739220839263 0.0
3.1857350439979730 2.2163746883310766 0.0
2.8935016329188685 2.9966998267315752 0.0
3.9335818657643928 3.2611719734171847 0.0
0.9389609540806854 0.2987006306716997 0.0
1.7262035280291199 2.4101601576693747 0.0
4.0799579247855569 2.5408427572954535 0.0
3.6904809965993985 -1.4075599200321687 0.0
1.2131529666379639 3.3076046023144086 0.0
1.1586809758600574 0.4775497159833338 0.0
0.9335281995022149 0.3718963112645309 0.0
0.8761020772593892 0.0530692213319787 0.0
4.1233781614917238 2.4637839189712953 0.0
3.8423842509991384 2.8436935906048757 0.0
2.7289934163877634 1.6008840382971616 0.0
1.0307983547968635 1.4839376788967356 0.0
3.9746232022336234 2.6468304896946813 0.0
4.1749815309752751 2.3807240838424160 0.0
4.3048178154139398 2.2446712695673132 0.0
4.0891232153926689 1.9817208298428264 0.0
1.6335522349391454 2.3202471085580734 0.0
3.7992306870255383 -0.1913648327785765 0.0
1.2089911172809928 0.6117278155480296 0.0
3.8437793863918057 1.5705826921762884 0.0
3.9323695941220840 1.4515967691950775 0.0
2.5536436509152143 1.7437177174796372 0.0
3.0576829568651189 1.5233763287049698 0.0
3.0652654018317507 2.0665006054566279 0.0
3.0864574869421060 1.9476736517098381 0.0
3.3615273228630351 1.7949638684748579 0.0
3.9852090953225074 2.2700267065029558 0.0
1.0273294248999303 0.1397447157119021 0.0
2.8786906867072957 2.1272718495002132 0.0
2.3815957931670066 0.8559685503748109 0.0
2.7219080719284299 1.9692833890083987 0.0
2.3845837953533429 -0.0536868276659851 0.0
4.1622199228305279 -0.7885643250066838 0.0
0.9399015214806402 0.9566160095506726 0.0
2.3130295972682338 -1.0760341846040447 0.0