# vtk DataFile Version 3.0
LucasCarvalhoTCC Results
ASCII

DATASET POLYDATA
FIELD FieldData 1
TIME 1 1 double
1.0

POINTS 531 float
0.02430399999999999 0.16425 0.0
0.5913384 0.481878 0.0
1.30475 0.591832 0.0
0.774126 0.951272 0.0
0.04779564148251592 0.1966194329439859 0.0
0.0726092153537953 0.2279866320496896 0.0
0.09876577335895967 0.2582426022760065 0.0
0.1262817198684718 0.2872673048853742 0.0
0.1551671626852806 0.3149288071400502 0.0
0.1854238368919928 0.3410826624766006 0.0
0.2170424591499632 0.3655716640299072 0.0
0.2499995164635996 0.3882263409476824 0.0
0.2842534387828506 0.4088665906889567 0.0
0.3197403359862048 0.4273050841371062 0.0
0.3563695945475563 0.4433531534921038 0.0
0.3940201673622058 0.4568300511916809 0.0
0.4325386107291805 0.4675762214989666 0.0
0.4717406913237268 0.4754709112408955 0.0
0.5114182513144845 0.480453442081874 0.0
0.5513531678859215 0.4825464217651069 0.0
0.6182637923774223 0.5096055604109244 0.0
0.647389101376845 0.5350126187545199 0.0
0.6784752958296183 0.5579802184492302 0.0
0.7112421079139344 0.5784810076698811 0.0
0.7454110434104482 0.5965507527581431 0.0
0.7807301979183381 0.6122562812860965 0.0
0.8169827939052532 0.6256694297140926 0.0
0.853985522124928 0.6368498290413532 0.0
0.8915818964261243 0.6458353363890481 0.0
0.9296339776508085 0.6526379336565091 0.0
0.9680139759519513 0.6572432424840469 0.0
1.006596418266983 0.659612648128084 0.0
1.045251165872634 0.6596877658251245 0.0
1.083837680945672 0.657397570658483 0.0
1.122201320191055 0.6526688455666412 0.0
1.160173053543044 0.6454405726452737 0.0
1.197574286953346 0.6356824063786186 0.0
1.23422961949795 0.6234159704281613 0.0
1.26998758503999 0.6087366500005643 0.0
1.285086682927543 0.6256533177085738 0.0
1.263669745906668 0.6583917156018083 0.0
1.240480125919214 0.6898988493917133 0.0
1.215532715641304 0.7200329197235763 0.0
1.188869833862339 0.7486599839005789 0.0
1.160556835593143 0.7756559317113654 0.0
1.130680194163798 0.8009104211039757 0.0
1.099347083827048 0.8243335727704395 0.0
1.066684425336412 0.8458643604021228 0.0
1.03283497048792 0.8654772531176074 0.0
0.9979492572630678 0.8831824104874066 0.0
0.9621749986495024 0.8990166556695112 0.0
0.9256475378616493 0.9130272060048579 0.0
0.8884846540507749 0.9252538945090274 0.0
0.8507866567183312 0.935715378288671 0.0
0.8126405010322847 0.9444016349017643 0.0
0.7365055179612304 0.9396161853607135 0.0
0.699310855231089 0.9266666891603924 0.0
0.6626179171945521 0.9123577070090924 0.0
0.6264901449910028 0.8966765244755546 0.0
0.5909789825447118 0.8796450886595113 0.0
0.556124897941028 0.8613059841617771 0.0
0.5219601957009091 0.8417124664434518 0.0
0.4885110616878257 0.8209207172498462 0.0
0.4558007060429968 0.7989848675704875 0.0
0.4238520247653796 0.775953675763176 0.0
0.3926900138417566 0.7518687036338616 0.0
0.3623437622133722 0.7267636709390595 0.0
0.3328479550295906 0.7006647540504483 0.0
0.3042438201183181 0.6735915983461908 0.0
0.2765795358619001 0.6455588748284606 0.0
0.2499101143933102 0.6165781952942546 0.0
0.2242967982692083 0.5866601984136335 0.0
0.1998060807431611 0.5558166834807132 0.0
0.1765083808984156 0.5240625786010467 0.0
0.154476512720734 0.491417660368959 0.0
0.133784033184808 0.457907916333494 0.0
0.114503564227142 0.4235664945146766 0.0
0.09670517293008124 0.3884342245925089 0.0
0.0804548910754031 0.3525597611689231 0.0
0.06581337946329963 0.3159993090744527 0.0
0.05283482490365372 0.2788161107032479 0.0
0.0415660226296666 0.2410796291505872 0.0
0.03204569406625649 0.2028646095712164 0.0
0.5272009874003867 0.6419624505772817 0.0
0.7421848286576707 0.7716726266421574 0.0
0.8789503364783713 0.7829234141383637 0.0
0.6149390992905563 0.7449438030688011 0.0
0.4064556042659638 0.5942834991165423 0.0
0.9875021850865396 0.7666507358101158 0.0
0.3188065960661005 0.539594034984892 0.0
0.61365100263957 0.6399487878797632 0.0
0.8049090660915541 0.8464379870891131 0.0
0.7099820328572021 0.6828840522539854 0.0
0.5239467234991928 0.7406922291088611 0.0
0.8154056325591208 0.7211774015928547 0.0
0.6676178829014909 0.8152713180209475 0.0
0.4416080359619968 0.674360953773491 0.0
0.489443615375965 0.5654986742123573 0.0
1.076665773779852 0.7387182918829318 0.0
0.250390543112057 0.4877450112830265 0.0
0.5736819937919005 0.5790366884881447 0.0
0.7263706755366466 0.8615301097563091 0.0
0.940143307772686 0.8233944909985552 0.0
0.927065543677544 0.7236459161626674 0.0
0.8744389806957806 0.8609114380468947 0.0
0.336888362650554 0.6081958070931937 0.0
0.2030757334857187 0.4383942902513459 0.0
0.3861483329720647 0.5255533415902591 0.0
0.5621001921466506 0.7923778419149285 0.0
0.6822897332295245 0.7428043323059399 0.0
0.5764061681675353 0.6881266532454204 0.0
1.129195449682892 0.7163224153578123 0.0
0.8157794419559141 0.7831214907157077 0.0
0.3806644703311284 0.6554275822782399 0.0
0.7695737871052837 0.669593045341503 0.0
0.4699375460410929 0.6217118815516158 0.0
0.6830867370872363 0.630350317562806 0.0
1.040416897214502 0.7929392348941093 0.0
0.4604428393605979 0.7321209818568342 0.0
0.8729552856459739 0.7015083313474691 0.0
1.017010765275644 0.7166925631396708 0.0
0.6458785458483771 0.6946878992565794 0.0
0.7733575582969163 0.8941098392103913 0.0
0.4457537579383052 0.5273353624588528 0.0
0.163830623786951 0.3903175742448083 0.0
0.6095823984734953 0.8256600013628639 0.0
0.2618074352614998 0.5435604438425528 0.0
0.6287880420949764 0.5875838132975476 0.0
0.3100402147222924 0.4835410260423071 0.0
0.5422177893302824 0.5343158927797464 0.0
0.9964262112680041 0.8213447667248638 0.0
0.4971609598823845 0.6906859160718212 0.0
0.5740517260168769 0.633982031239429 0.0
0.7423299505107201 0.7218768583704394 0.0
0.767147744476665 0.819658485932403 0.0
0.9427329070375209 0.7774595780066723 0.0
0.8375285793481674 0.8869398470561132 0.0
0.2879426409425497 0.5872676364411625 0.0
0.6797562629663748 0.8647676397847667 0.0
1.171674168522591 0.6949964056806914 0.0
0.5261010885606964 0.6055079299963303 0.0
0.7081534744446967 0.8078672678314597 0.0
0.9681672688626206 0.705385299758921 0.0
0.7364069054947873 0.6432919177737106 0.0
0.363826821075015 0.5678764295233764 0.0
0.826170216989844 0.6605791783255148 0.0
0.1284439337099834 0.3602715082199688 0.0
0.518140828090112 0.783905985497134 0.0
0.8452908336054504 0.8167586152211004 0.0
0.2015204468558833 0.492088055688788 0.0
0.4005883523205732 0.7121294304856254 0.0
0.3551392316798573 0.4864133323669936 0.0
0.2501727034998737 0.4443035857235296 0.0
0.857938396055507 0.7390317828783199 0.0
0.9245301815433076 0.8668102132501951 0.0
0.5702050292970205 0.7323438487067678 0.0
1.111607633075016 0.759318252473435 0.0
0.6317193755596126 0.7853891653733797 0.0
0.7921381265818805 0.7497379312370454 0.0
1.088942426366261 0.7015435214091311 0.0
0.5818207607488639 0.5352340257544296 0.0
0.4203532416309484 0.6369649631143086 0.0
0.4854818714173937 0.5131439318707094 0.0
0.4475429831528036 0.5690430472086269 0.0
0.8968753306595262 0.8225547516037004 0.0
0.6339557898063448 0.8543470494763272 0.0
0.3416564411796998 0.6516449771136894 0.0
1.082970576264455 0.7856036465430698 0.0
0.2255204648032354 0.5229464838393291 0.0
0.7335043541589261 0.9012744999286941 0.0
0.9097052989734319 0.6921177492721042 0.0
0.5363428275528405 0.6992389299864537 0.0
0.9657777897300287 0.8588269742066746 0.0
1.025947476617909 0.7556651119714124 0.0
0.1090829970454354 0.3226173037985549 0.0
0.4836644525169279 0.7663103281018557 0.0
0.6910856326166581 0.777867529208468 0.0
0.6694391877434097 0.5946719355048008 0.0
0.2954883530575775 0.4501042133334518 0.0
0.6746032498128595 0.6643957640016517 0.0
1.054636636429828 0.6974583960183274 0.0
0.8939255235163368 0.7470597914537064 0.0
0.3749741568555516 0.6190655430398917 0.0
1.204101441114554 0.6801433534918062 0.0
0.6130053345415899 0.6785345531932346 0.0
0.7679719108452487 0.8562682874000032 0.0
0.9710820219997449 0.8008372590855476 0.0
0.1608022352294362 0.4242591696906621 0.0
0.2865399820604418 0.5141369963640697 0.0
0.1962258775846918 0.4008383427744516 0.0
0.6210920174972845 0.5516143721732873 0.0
0.4843009180093644 0.6583977883024127 0.0
0.5695029195102991 0.8267073580550881 0.0
0.9562891163300477 0.7436031251145003 0.0
0.4174190173896447 0.5044019081507806 0.0
0.410860431802698 0.5535781448116232 0.0
0.8709320861791604 0.9002602580953145 0.0
0.427354757192076 0.7399041791280969 0.0
0.7107884943357746 0.7172753954970394 0.0
1.030382288537246 0.8267335242583146 0.0
0.7737440530215844 0.7115751739064536 0.0
0.8042035044852396 0.9123190309183211 0.0
0.0480920891272324 0.2181807374272496 0.0
0.3695079235280397 0.6886893012630373 0.0
0.773516204411121 0.7830673827025234 0.0
0.302776671534508 0.6210168062901616 0.0
0.7150573728414059 0.6149413270404035 0.0
0.5863276441271683 0.769748656022605 0.0
1.143752049005473 0.6780480059671409 0.0
0.6477132714923303 0.7318578097016951 0.0
0.8380052680878572 0.8531154611905379 0.0
0.5966224054445893 0.6051703156405629 0.0
0.3207240819522855 0.5772784374275386 0.0
0.3520131451607586 0.5263918604440553 0.0
0.8573528491808811 0.6709738722470224 0.0
0.1797236573643203 0.460867988842514 0.0
0.5540828191547277 0.6661566975721369 0.0
1.158039843450239 0.7357536542887966 0.0
0.08638006908591334 0.286237566592474 0.0
0.790861820497242 0.6466611559014377 0.0
0.5362079962218838 0.8121454698907893 0.0
0.9405172130232713 0.6862060282668497 0.0
0.6039359324506977 0.711463595189489 0.0
0.4440093493753478 0.6096873538428137 0.0
0.5500746279087338 0.7620941994763282 0.0
0.2578504496023611 0.5739900063885278 0.0
0.502526452350101 0.6209820553182169 0.0
0.6799833858912959 0.7033681517905728 0.0
0.7183487148906835 0.7518430858176317 0.0
0.8006701240044786 0.8118713608014352 0.0
0.1304684854221093 0.3934039266496895 0.0
1.00789495394612 0.7937868725857601 0.0
0.696960396255943 0.893370944718147 0.0
0.8258315165019564 0.7538365084989149 0.0
0.8462950259502577 0.775614153529746 0.0
0.4082018839227037 0.6749460331934272 0.0
0.7025889307788081 0.8378536687159448 0.0
0.4666676520109517 0.6984557076050861 0.0
[...]
POINT_DATA 531

VECTORS Velocity float
0.0000000000000000 1.0000000000000000 0.0
0.0000000000000000 1.0000000000000000 0.0
2.6387392569256729 -0.9583350947989961 0.0
1.9852615804425950 1.0527078622136765 0.0
0.0000000000000000 1.0000000000000000 0.0
0.0000000000000000 1.0000000000000000 0.0
0.0000000000000000 1.0000000000000000 0.0
0.0000000000000000 1.0000000000000000 0.0
0.0000000000000000 1.0000000000000000 0.0
0.0000000000000000 1.0000000000000000 0.0
0.0000000000000000 1.0000000000000000 0.0
0.0000000000000000 1.0000000000000000 0.0
0.0000000000000000 1.0000000000000000 0.0
0.0000000000000000 1.0000000000000000 0.0
0.0000000000000000 1.0000000000000000 0.0
0.0000000000000000 1.0000000000000000 0.0
0.0000000000000000 1.0000000000000000 0.0
0.0000000000000000 1.0000000000000000 0.0
0.0000000000000000 1.0000000000000000 0.0
0.0000000000000000 1.0000000000000000 0.0
0.0000000000000000 0.0000000000000000 0.0
0.0000000000000000 0.0000000000000000 0.0
0.0000000000000000 0.0000000000000000 0.0
0.0000000000000000 0.0000000000000000 0.0
0.0000000000000000 0.0000000000000000 0.0
0.0000000000000000 0.0000000000000000 0.0
0.0000000000000000 0.0000000000000000 0.0
0.0000000000000000 0.0000000000000000 0.0
0.0000000000000000 0.0000000000000000 0.0
0.0000000000000000 0.0000000000000000 0.0
0.0000000000000000 0.0000000000000000 0.0
0.0000000000000000 0.0000000000000000 0.0
0.0000000000000000 0.0000000000000000 0.0
0.0000000000000000 0.0000000000000000 0.0
0.0000000000000000 0.0000000000000000 0.0
0.0000000000000000 0.0000000000000000 0.0
0.0000000000000000 0.0000000000000000 0.0
0.0000000000000000 0.0000000000000000 0.0
0.0000000000000000 0.0000000000000000 0.0
2.6790572038257854 -1.7970750645118616 0.0
3.6715122715922837 -2.3107376926420393 0.0
3.7328987722983205 -2.2093771531758977 0.0
3.6856243623374527 -1.8610608863779294 0.0
3.5708504403488739 -1.4884979465820307 0.0
3.5243917900835275 -1.1181270045407543 0.0
3.5093448761972659 -0.8635435745502812 0.0
3.4789374446580119 -0.6308675246310426 0.0
3.3847774624154656 -0.3364216167283555 0.0
3.3672242983673444 -0.1214820276520651 0.0
3.3100260033815498 0.0920974459672267 0.0
3.2058845701187497 0.2972075948288123 0.0
3.1426503897175064 0.4681221110831029 0.0
2.9959489850378658 0.6297798703381782 0.0
2.6445760773023679 1.0117340583983678 0.0
2.0798177119832704 0.9075082530404902 0.0
0.0000000000000000 0.0000000000000000 0.0
0.0000000000000000 0.0000000000000000 0.0
0.0000000000000000 0.0000000000000000 0.0
0.0000000000000000 0.0000000000000000 0.0
0.0000000000000000 0.0000000000000000 0.0
0.0000000000000000 0.0000000000000000 0.0
0.0000000000000000 0.0000000000000000 0.0
0.0000000000000000 0.0000000000000000 0.0
0.0000000000000000 0.0000000000000000 0.0
0.0000000000000000 0.0000000000000000 0.0
0.0000000000000000 0.0000000000000000 0.0
0.0000000000000000 0.0000000000000000 0.0
0.0000000000000000 0.0000000000000000 0.0
0.0000000000000000 0.0000000000000000 0.0
0.0000000000000000 0.0000000000000000 0.0
0.0000000000000000 0.0000000000000000 0.0
0.0000000000000000 0.0000000000000000 0.0
0.0000000000000000 0.0000000000000000 0.0
0.0000000000000000 0.0000000000000000 0.0
0.0000000000000000 0.0000000000000000 0.0
0.0000000000000000 0.0000000000000000 0.0
0.0000000000000000 0.0000000000000000 0.0
0.0000000000000000 0.0000000000000000 0.0
0.0000000000000000 0.0000000000000000 0.0
0.0000000000000000 0.0000000000000000 0.0
0.0000000000000000 0.0000000000000000 0.0
0.0000000000000000 0.0000000000000000 0.0
0.0000000000000000 0.0000000000000000 0.0
3.3486230764770264 2.3028486146240197 0.0
3.6875472040504169 1.6540210762239245 0.0
3.6408165070412024 0.9432504049445158 0.0
3.5516230900967933 2.0382572139448780 0.0
3.5097161124217191 2.7871899535102056 0.0
3.6397409422845253 0.1903804466338527 0.0
3.8014156156200567 3.4445223688201829 0.0
3.4186079682545971 2.3075260328307698 0.0
3.4256074890703134 1.4748588573241159 0.0
3.5824781489422182 1.7327295099950524 0.0
3.1303975241432243 2.0554317126829891 0.0
3.6331886485493263 1.2740873156445960 0.0
3.4465559028815416 1.7425211927989022 0.0
3.1681676682953976 2.4815358948468584 0.0
3.2344232208670700 2.2874565806670275 0.0
3.3751564632448692 -0.3612868465564013 0.0
3.5569050094228811 3.9099836369382777 0.0
2.7508911800752336 2.1970648762190499 0.0
3.3231218697360498 1.4729993045723702 0.0
3.4817065791910382 0.4982864580716616 0.0
3.0776240242025752 0.4667805723598948 0.0
3.2892340413829730 0.9470879969690844 0.0
2.8739258406677042 2.7861235704068354 0.0
3.4838460960459883 4.5958969991639718 0.0
3.5292505602894750 2.5521331793433113 0.0
2.7665988535561317 1.6378456818227605 0.0
3.7179821474912926 1.8972093833201193 0.0
3.4598126370397724 2.2555038815983997 0.0
3.1323854941348244 -0.7423689340328453 0.0
3.6187166425571440 1.3587190710080561 0.0
2.6537231876704572 2.3176837367318917 0.0
2.9784316368965706 1.1487612139097070 0.0
3.3538155341508240 2.4440616128547590 0.0
3.0141758005940718 1.5825597628849926 0.0
3.5798717356343288 -0.1657534141934005 0.0
2.4495077562196652 1.7401875762190164 0.0
2.9511800772419305 0.7496276343938109 0.0
2.7543242273783841 0.1172682593606938 0.0
3.6029977215101519 2.1168815010956883 0.0
2.9421183103989841 1.7511580878942221 0.0
2.8919648816960581 2.3391178955190366 0.0
2.9364587951389556 4.7372322972403964 0.0
2.8440389912443802 1.4978021688139704 0.0
2.5540751976499227 3.0121765513619407 0.0
2.5350211200555597 1.9229452022059195 0.0
3.1846990841584968 3.4432446781851489 0.0
2.1960289314240953 1.8424062733302218 0.0
3.4843975091694968 0.1125995927165296 0.0
3.4083805296889107 2.2843436734815721 0.0
3.3338487896202906 2.2925827668485956 0.0
3.7397055064998144 1.6450713082515429 0.0
3.6139058862007838 1.6209215773758610 0.0
3.6240469441185210 0.4666872135731478 0.0
3.0221522352901200 1.2838242493669259 0.0
1.7654875034038753 1.7871474356028147 0.0
2.7724900138746920 1.3318693048504235 0.0
3.0364609237253610 -0.9272453376590748 0.0
3.2953355736205867 2.3116985585489420 0.0
3.6530754623069326 1.8110176823949911 0.0
2.0374539821010811 0.1639937268822250 0.0
2.3182315484274163 1.1495667560882517 0.0
3.6038026741528455 3.1062970056142678 0.0
1.5280413141801723 0.5608243015683886 0.0
1.8316007327085335 3.2597487470127069 0.0
1.8322074932940884 1.1055590410377589 0.0
3.4828057978275524 1.1657642913307111 0.0
1.8365483070840167 2.2962145894928336 0.0
1.3483806198868260 0.9627810779659559 0.0
2.0762049837049221 2.3677994829977602 0.0
2.7443737939285100 3.3816838173679900 0.0
3.6271679471025613 1.0592526203251651 0.0
3.2931252990104674 0.5980791083366478 0.0
3.4392160619612135 2.2170993259188418 0.0
3.6071757506127078 -0.8258648271006913 0.0
3.4592201982639965 1.8216319110476511 0.0
3.7223357091661975 1.4115405826254501 0.0
2.0280825273686593 -0.3351111936323153 0.0
1.7338093944071771 1.6400958549868370 0.0
3.2551641602040089 2.6705439303577978 0.0
1.4934953662109696 1.7857790073685655 0.0
3.4010033129527284 2.4676893523640784 0.0
3.4612465449281760 0.8245604430387806 0.0
1.8426741361643095 0.9729074188662629 0.0
1.4905221450683890 1.4844162988279259 0.0
3.6274335498288841 -0.4937342958905204 0.0
1.8294106713709193 1.9221611556674265 0.0
1.8452063717685385 0.9627463579314075 0.0
1.8376516787800594 0.2178903534454051 0.0
3.4755661408934446 2.2840073123248925 0.0
3.3630674631616961 0.3061598617831280 0.0
3.4737353331732472 -0.1138542421741827 0.0
1.5933469055266951 3.1019479866414650 0.0
1.5293604010557371 1.2505399013223777 0.0
3.7123238739690017 1.8440128317199531 0.0
1.5907170223126355 0.9863146897783686 0.0
1.5008995938334488 2.7643064717440100 0.0
3.5411206451566559 2.0171027298108117 0.0
1.7527730348392345 -0.2564735044007853 0.0
3.6070209218952178 0.8083159756011628 0.0
3.1364625244030275 2.6688276751850326 0.0
2.7277202026454215 -1.3182082421480461 0.0
3.4950860570918287 2.1956921396545686 0.0
3.4565192372117584 1.7425637013895758 0.0
3.5619122045572178 0.2784295688244897 0.0
1.9996228304125647 3.0552245864176726 0.0
3.5138427910325838 3.6778280254776794 0.0
2.4437447497323328 4.0336702096406851 0.0
1.0614892328677488 1.0001409055883108 0.0
3.3480997427581731 2.3935250725972850 0.0
1.4105642227725046 0.7447633663495824 0.0
3.4213543328231548 0.3415612978752847 0.0
2.1460670525349972 2.1381975559055184 0.0
3.4579325146303757 2.6450270073768705 0.0
2.9554844707651085 0.9113907428735295 0.0
1.1028459965372996 0.8201459222081280 0.0
3.7651165278057017 1.7724229151241973 0.0
3.4780750558376496 -0.1033697488823039 0.0
3.6428729191433531 1.4559413370481240 0.0
2.4896592268698621 1.4767518955557561 0.0
0.7641792526277387 3.4574471183654332 0.0
1.1753555097883372 1.0570462920023698 0.0
3.6418642114230169 1.5099185542149054 0.0
1.4006299350848956 1.1539893742533451 0.0
1.4549071194294629 0.5763860132845956 0.0
3.3505549774485246 1.9876454252760012 0.0
1.6551625762036160 -0.2999255416385505 0.0
3.6344821987869667 2.0347564759170180 0.0
3.3795833715417549 1.2745384570057012 0.0
3.1547991906182427 2.2580817663082260 0.0
2.9734830922472724 3.0704557439147688 0.0
3.7623342659301553 3.1680829149491929 0.0
1.3815119123277080 0.4006476626997909 0.0
1.7216454079882026 2.4162805575245176 0.0
3.4102474255411512 2.2748859476109313 0.0
3.5763495360352979 -1.1044802457261844 0.0
1.2131291116133540 3.3076161796621699 0.0
1.5142002957090532 0.6033589400122259 0.0
1.2686175370819190 0.5123632878590305 0.0
1.3526992104552686 0.0770216826047374 0.0
3.5390520631311047 2.1347407031963908 0.0
3.3948397592282955 2.6010964288517284 0.0
3.0754494243131205 1.8898404813005845 0.0
1.1078904124107005 1.6028732728787396 0.0
3.3457971755878790 2.3453035868607883 0.0
3.6826472875385159 2.0187735025367433 0.0
3.7275834322289314 1.7475516918607332 0.0
3.5450843955709783 1.4189965114747105 0.0
1.6344034996029067 2.3190855639612060 0.0
3.5970375887013009 0.0582865198322332 0.0
1.5697623910389991 0.7317832401349175 0.0
3.6778236161277791 1.2812022313554137 0.0
3.6245653882491364 1.1529610223367157 0.0
2.7476762032899020 2.0987775309079781 0.0
3.3366010177192664 1.5360850391779080 0.0
3.1594167386627094 2.2268780374724066 0.0
3.2226059636390594 2.0618206195681061 0.0
3.5308937123941959 1.6247423992227432 0.0
3.6896985330419620 1.9481961222078943 0.0
1.5057983288503585 0.2225493035296172 0.0
3.0025047221773709 2.0786178739975423 0.0
3.0800493674479670 1.0097730482913729 0.0
3.0357401351866908 2.1194951198147214 0.0
3.1103126496103637 0.0526404770734052 0.0
3.5374538884377573 -0.2910390455595688 0.0
0.9828732570039826 1.0501459125649235 0.0
2.3313670821102899 -1.0588023998405300 0.0
3.4239406488268975 2.2562402796687646 0.0
3.0854853334943564 1.6275976061341824 0.0
3.1382590927345282 1.5412734160471200 0.0
3.4566804754800113 4.0121586651648329 0.0
0.7165009909290020 1.6574119975521318 0.0
3.3797599393842179 2.4017523744282538 0.0
1.5430316039444922 1.8304459196648026 0.0
3.1853008024803642 -0.5578786892889672 0.0
3.6135093050590230 0.7273059879044679 0.0
3.2852946256385138 2.2716753885859666 0.0
0.8692675783337411 0.6891098138254442 0.0
1.1887977365951190 2.2273012028830430 0.0
3.1386130064000777 2.8569175633560784 0.0
1.7110838755660924 2.9273018017676424 0.0
1.1138835959947873 1.8844018580985049 0.0
1.0591965446647287 1.6001704711731934 0.0
1.6652046754581566 3.0813135666358784 0.0
1.6865428604804340 1.2615782575317829 0.0
2.1905145849257921 -1.4146101516320142 0.0
2.4880615109567925 1.9467070950924936 0.0
0.9193518376792245 0.3939327598383786 0.0
0.9696321331428425 0.7310313815166127 0.0
3.7600869796528711 3.3950800348794972 0.0
1.5336972053625004 -0.0692978667748952 0.0
3.0729100883578404 0.7385918698843518 0.0
3.3918270956938064 0.1028112027929317 0.0
3.5653272659970807 2.2085642267331669 0.0
1.1250807496704958 3.3292087375381190 0.0
3.2488368076762710 0.7553978898102032 0.0
0.8090500268808289 0.4938388056378352 0.0
3.5882920887985423 -0.1874103438403631 0.0
3.3348215531979624 2.5456279434702078 0.0
1.0949553132647878 -0.0071199406795993 0.0
3.1289966664448841 -0.1473463949430392 0.0
3.1487268184231838 1.7279456047047150 0.0
3.6516452109524327 -1.4826162543546038 0.0
1.1867759328446728 0.1391972754892280 0.0
2.9679307773882195 1.7515428336157519 0.0
3.0202835896944471 2.2446169619172127 0.0
2.5629694797009224 1.9017222278684933 0.0
3.4058176967729326 2.3039256617343034 0.0
3.6846509780954060 1.7262046141586049 0.0
3.0416297532453371 1.1803149735938008 0.0
3.6001440297653420 3.7552719463595570 0.0
3.6705848869773274 1.6779451083956551 0.0
1.2103806645925239 0.7370384788793061 0.0
3.1151280770680274 3.3411760489136837 0.0
3.0998047420305292 1.7011392958011875 0.0
3.6869815906522176 1.7658267896742830 0.0
3.7306227917526855 1.5903244666621710 0.0
3.1494259136906559 2.3152986421468640 0.0
3.3557010392352633 2.3221480705943160 0.0
1.3798303932569003 -0.7609242482834466 0.0
3.6079064279465207 0.6541265970452216 0.0
3.4534992470075458 0.2768266598508614 0.0
1.6705451413393673 4.0681269199520198 0.0
2.5907388067831656 2.1133016772803841 0.0
0.8717188608606126 0.6310733028351614 0.0
3.3749905986609305 2.2898635245195069 0.0
3.6754413134544133 1.6641298106913467 0.0
3.6343115582515879 0.9816093163717962 0.0
3.4964424112565018 2.0035552470005586 0.0
3.5261411562105160 2.7515202090729121 0.0
3.6423326548174004 0.2280801065757964 0.0
3.8151247091859330 3.4183741221776396 0.0
3.4882521662612351 2.3518465116115990 0.0
3.3379024638180050 1.4955644021334160 0.0
3.6750594538935379 1.7873732353039387 0.0
3.0414880775505733 1.9872207527580315 0.0
3.7203318237851279 1.3119235851585771 0.0
3.3456475076794785 1.6968720382652034 0.0
3.1086950686100709 2.4144245420625841 0.0
3.3235166422764517 2.2886995630016966 0.0
3.3807820291320323 -0.3427202043900198 0.0
3.5641747774686103 3.8919946159599812 0.0
2.8470406898128777 2.2363985665479333 0.0
3.2127286632685892 1.4445564202466010 0.0
3.4221014420265554 0.5366054676488788 0.0
3.1523341356601406 0.4948310816004842 0.0
3.2052987867211074 0.9795681403461440 0.0
2.8416142709331234 2.7311150768987313 0.0
3.4876624769828481 4.5920494014196027 0.0
3.5909655942915428 2.5510210891460452 0.0
2.6622721753486864 1.5760278846653044 0.0
3.7188171127005054 1.9021902546604725 0.0
3.4518805115221305 2.2406312459676720 0.0
3.1343325160095437 -0.7383378601632578 0.0
3.6085693433856303 1.3877876253254429 0.0
2.5994589326696071 2.2491101575971779 0.0
3.0881458681176497 1.1931500242856254 0.0
3.3736557365599165 2.4165924333448618 0.0
3.1282716530976584 1.6450918982926139 0.0
3.5540844956288948 -0.1337618099489832 0.0
2.3596065903811230 1.6758414337565006 0.0
3.0517259698721664 0.7783788355398303 0.0
2.7929630881133880 0.1342488035179676 0.0
3.6386606804323569 2.1372830969751679 0.0
2.8423617662440233 1.7438684850773305 0.0
2.9792154315969350 2.3464781732106630 0.0
2.9372749282046735 4.7365480785554253 0.0
2.7386506733637050 1.4449514878451357 0.0
2.5430275567063045 2.9825212528091618 0.0
2.6369275264292353 1.9949752058521295 0.0
3.2168704768772396 3.4508506246510042 0.0
2.2932619453796952 1.8601890876924156 0.0
3.4338113756939288 0.1494617239616602 0.0
3.3478004568508148 2.2286958380290867 0.0
3.3876093658016679 2.3064921828321396 0.0
3.8001440393156787 1.6739420480471232 0.0
3.5475357017285472 1.6279331561688446 0.0
3.6123261730721890 0.5032172950921978 0.0
2.9438117525657632 1.2993853035333105 0.0
1.7407830739599046 1.7558910203168214 0.0
2.6668995275888299 1.2845791204106820 0.0
3.0373905022160859 -0.9234843427018790 0.0
3.3542876434166593 2.3188465516895267 0.0
3.5789232213363094 1.7840318268115070 0.0
2.0970030929275887 0.1843164073514319 0.0
2.4171870119889323 1.1954056956573686 0.0
3.6180744776415215 3.0741709697307371 0.0
1.6080487568300261 0.5890832998250970 0.0
1.8318190240035479 3.2594601315904428 0.0
1.7538826513794541 1.0534795596336477 0.0
3.4262304138805488 1.2004879297341182 0.0
1.8330249428148562 2.2850624184052624 0.0
1.2926103050212805 0.9161681359638427 0.0
2.1205938170079235 2.3733740582781415 0.0
2.7595865856076358 3.3811150122548086 0.0
3.6920836393041201 1.0970553417163975 0.0
3.2302127193205443 0.6270451906797367 0.0
3.3799024368855215 2.1679801078342047 0.0
3.6013323770882950 -0.8164324038822954 0.0
3.3658584801596758 1.7756152136636079 0.0
3.7594435498436725 1.4388566106322951 0.0
2.0389280778536634 -0.3308146755137885 0.0
1.8125015138850424 1.6753425932414345 0.0
3.2267282103814363 2.6116980882526852 0.0
1.5674919309507436 1.7944145662185440 0.0
3.4664102818935927 2.4533535334788441 0.0
3.3972893495631968 0.8680217494229334 0.0
1.7582762625866308 0.9309338191875124 0.0
1.4517066043307589 1.4366730373157917 0.0
3.6155264441654773 -0.4745087186226198 0.0
1.8225551725939797 1.9041443351739127 0.0
1.7711249491896857 0.9462782620388319 0.0
1.9109707813210599 0.2361507916376490 0.0
3.4265678017423724 2.2408909011354265 0.0
3.3161743168578184 0.3316550029845512 0.0
3.4820189272820974 -0.0785742278123797 0.0
1.5933415214868347 3.1019857782069811 0.0
1.4561317259096849 1.1918991929080456 0.0
3.6597319473283769 1.8273470935906018 0.0
1.6769114136098560 1.0380892604713914 0.0
1.5215026058286700 2.7717940037984095 0.0
3.6289075800939248 2.0661097598362352 0.0
1.7751103068298302 -0.2484589310567070 0.0
3.6472029490621232 0.8467203680686248 0.0
3.1077332991854805 2.6028931866278615 0.0
2.7278227397162000 -1.3175568149509274 0.0
3.5271566496103861 2.2093883187868002 0.0
3.3552845821886823 1.7367245747802198 0.0
3.5252403832751669 0.3134723502545463 0.0
2.0000788229077435 3.0525379124182876 0.0
3.5267623546124263 3.6610104321598227 0.0
2.4463770063730301 4.0333605515889497 0.0
1.1223763803729476 1.0522915420908079 0.0
3.3272117943988935 2.3503054274340345 0.0
1.3363344332371794 0.7061284920294959 0.0
3.4667395623148107 0.3734015557283393 0.0
2.2103647107574109 2.1465426694535568 0.0
3.5233500379063289 2.6333099026089695 0.0
2.8960025310568489 0.9341207370583430 0.0
1.0477624845310824 0.7774973427978423 0.0
3.8167916577892349 1.8045060461647697 0.0
3.4450104576438827 -0.0802497302166949 0.0
3.7277371767065115 1.4940952179999039 0.0
2.4267164080848507 1.4804114268408850 0.0
0.7641792526277388 3.4574471183654332 0.0
1.1295059285758819 1.0115912857041440 0.0
3.6245507818144991 1.5270987120487092 0.0
1.3730553999655686 1.1200555194157662 0.0
1.5398898962156553 0.6146296927016167 0.0
3.2575757420279339 1.9323297265136934 0.0
1.6600404603623229 -0.2995371845052195 0.0
3.6300079192198011 2.0345737408990408 0.0
3.2841263877603062 1.3048894412873417 0.0
3.2463463308600802 2.3082232757447474 0.0
2.9489354671436994 3.0246083676353521 0.0
3.8115394496015260 3.1645648467760021 0.0
1.4559571490675915 0.4217547284610962 0.0
1.7203878939033872 2.4106461728840252 0.0
3.4176208936442731 2.2629156442076264 0.0
3.5740582148420454 -1.0989853465847679 0.0
1.2130989193017350 3.3076230717094433 0.0
1.5950580002873469 0.6368692004602109 0.0
1.1956372488966707 0.4790366188867576 0.0
1.4160646123865110 0.0876410165919864 0.0
3.5291351195612140 2.1179205908629597 0.0
3.4176473601415025 2.5661161499233627 0.0
2.9812880363760601 1.8252863336384304 0.0
1.0911283397457503 1.5746609916929504 0.0
3.3744210493315347 2.3262746122153257 0.0
3.7284999790159441 2.0464966164034699 0.0
3.7353100619190323 1.7584961880493051 0.0
3.4924588228359266 1.4390856709123734 0.0
1.6346597789943902 2.3182065842904205 0.0
3.5671686897020773 0.0999966150545341 0.0
1.4975556106699350 0.7045952238064584 0.0
3.7128200009661230 1.3131866163580628 0.0
3.6261734611824306 1.1910436598212970 0.0
2.6828974615716592 2.0290363105863887 0.0
3.2330685719869465 1.5029059331381824 0.0
3.0892302027713510 2.1626908982408288 0.0
3.3300520541243674 2.1263355868906415 0.0
3.6332060288698256 1.6666698846270591 0.0
3.6308815395375591 1.9276089595805939 0.0
1.5510553233151885 0.2342765709648211 0.0
3.1006606741041378 2.0938079430957881 0.0
3.1890554339451462 1.0519079752955864 0.0
2.9491128749204822 2.0591008680913117 0.0
3.1565359550779468 0.0798669301397041 0.0
3.5174708136648523 -0.2742404433094966 0.0
0.9717053076598839 1.0315386987736346 0.0
2.3313606437158252 -1.0589215395634839 0.0
3.4612233781814861 2.2693991425865043 0.0