# vtk DataFile Version 3.0
LucasCarvalhoTCC Results
ASCII

DATASET POLYDATA
FIELD FieldData 1
TIME 1 1 double
3.1

POINTS 531 float
0.02430399999999999 0.16425 0.0
0.5913384 0.481878 0.0
1.30475 0.591832 0.0
0.774126 0.951272 0.0
0.04779564148251592 0.1966194329439859 0.0
0.0726092153537953 0.2279866320496896 0.0
0.09876577335895967 0.2582426022760065 0.0
0.1262817198684718 0.2872673048853742 0.0
0.1551671626852806 0.3149288071400502 0.0
0.1854238368919928 0.3410826624766006 0.0
0.2170424591499632 0.3655716640299072 0.0
0.2499995164635996 0.3882263409476824 0.0
0.2842534387828506 0.4088665906889567 0.0
0.3197403359862048 0.4273050841371062 0.0
0.3563695945475563 0.4433531534921038 0.0
0.3940201673622058 0.4568300511916809 0.0
0.4325386107291805 0.4675762214989666 0.0
0.4717406913237268 0.4754709112408955 0.0
0.5114182513144845 0.480453442081874 0.0
0.5513531678859215 0.4825464217651069 0.0
0.6182637923774223 0.5096055604109244 0.0
0.647389101376845 0.5350126187545199 0.0
0.6784752958296183 0.5579802184492302 0.0
0.7112421079139344 0.5784810076698811 0.0
0.7454110434104482 0.5965507527581431 0.0
0.7807301979183381 0.6122562812860965 0.0
0.8169827939052532 0.6256694297140926 0.0
0.853985522124928 0.6368498290413532 0.0
0.8915818964261243 0.6458353363890481 0.0
0.9296339776508085 0.6526379336565091 0.0
0.9680139759519513 0.6572432424840469 0.0
1.006596418266983 0.659612648128084 0.0
1.045251165872634 0.6596877658251245 0.0
1.083837680945672 0.657397570658483 0.0
1.122201320191055 0.6526688455666412 0.0
1.160173053543044 0.6454405726452737 0.0
1.197574286953346 0.6356824063786186 0.0
1.23422961949795 0.6234159704281613 0.0
1.26998758503999 0.6087366500005643 0.0
1.285086682927543 0.6256533177085738 0.0
1.263669745906668 0.6583917156018083 0.0
1.240480125919214 0.6898988493917133 0.0
1.215532715641304 0.7200329197235763 0.0
1.188869833862339 0.7486599839005789 0.0
1.160556835593143 0.7756559317113654 0.0
1.130680194163798 0.8009104211039757 0.0
1.099347083827048 0.8243335727704395 0.0
1.066684425336412 0.8458643604021228 0.0
1.03283497048792 0.8654772531176074 0.0
0.9979492572630678 0.8831824104874066 0.0
0.9621749986495024 0.8990166556695112 0.0
0.9256475378616493 0.9130272060048579 0.0
0.8884846540507749 0.9252538945090274 0.0
0.8507866567183312 0.935715378288671 0.0
0.8126405010322847 0.9444016349017643 0.0
0.7365055179612304 0.9396161853607135 0.0
0.699310855231089 0.9266666891603924 0.0
0.6626179171945521 0.9123577070090924 0.0
0.6264901449910028 0.8966765244755546 0.0
0.5909789825447118 0.8796450886595113 0.0
0.556124897941028 0.8613059841617771 0.0
0.5219601957009091 0.8417124664434518 0.0
0.4885110616878257 0.8209207172498462 0.0
0.4558007060429968 0.7989848675704875 0.0
0.4238520247653796 0.775953675763176 0.0
0.3926900138417566 0.7518687036338616 0.0
0.3623437622133722 0.7267636709390595 0.0
0.3328479550295906 0.7006647540504483 0.0
0.3042438201183181 0.6735915983461908 0.0
0.2765795358619001 0.6455588748284606 0.0
0.2499101143933102 0.6165781952942546 0.0
0.2242967982692083 0.5866601984136335 0.0
0.1998060807431611 0.5558166834807132 0.0
0.1765083808984156 0.5240625786010467 0.0
0.154476512720734 0.491417660368959 0.0
0.133784033184808 0.457907916333494 0.0
0.114503564227142 0.4235664945146766 0.0
0.09670517293008124 0.3884342245925089 0.0
0.0804548910754031 0.3525597611689231 0.0
0.06581337946329963 0.3159993090744527 0.0
0.05283482490365372 0.2788161107032479 0.0
0.0415660226296666 0.2410796291505872 0.0
0.03204569406625649 0.2028646095712164 0.0
0.5272009874003867 0.6419624505772817 0.0
0.7421848286576707 0.7716726266421574 0.0
0.8789503364783713 0.7829234141383637 0.0
0.6149390992905563 0.7449438030688011 0.0
0.4064556042659638 0.5942834991165423 0.0
0.9875021850865396 0.7666507358101158 0.0
0.3188065960661005 0.539594034984892 0.0
0.61365100263957 0.6399487878797632 0.0
0.8049090660915541 0.8464379870891131 0.0
0.7099820328572021 0.6828840522539854 0.0
0.5239467234991928 0.7406922291088611 0.0
0.8154056325591208 0.7211774015928547 0.0
0.6676178829014909 0.8152713180209475 0.0
0.4416080359619968 0.674360953773491 0.0
0.489443615375965 0.5654986742123573 0.0
1.076665773779852 0.7387182918829318 0.0
0.250390543112057 0.4877450112830265 0.0
0.5736819937919005 0.5790366884881447 0.0
0.7263706755366466 0.8615301097563091 0.0
0.940143307772686 0.8233944909985552 0.0
0.927065543677544 0.7236459161626674 0.0
0.8744389806957806 0.8609114380468947 0.0
0.336888362650554 0.6081958070931937 0.0
0.2030757334857187 0.4383942902513459 0.0
0.3861483329720647 0.5255533415902591 0.0
0.5621001921466506 0.7923778419149285 0.0
0.6822897332295245 0.7428043323059399 0.0
0.5764061681675353 0.6881266532454204 0.0
1.129195449682892 0.7163224153578123 0.0
0.8157794419559141 0.7831214907157077 0.0
0.3806644703311284 0.6554275822782399 0.0
0.7695737871052837 0.669593045341503 0.0
0.4699375460410929 0.6217118815516158 0.0
0.6830867370872363 0.630350317562806 0.0
1.040416897214502 0.7929392348941093 0.0
0.4604428393605979 0.7321209818568342 0.0
0.8729552856459739 0.7015083313474691 0.0
1.017010765275644 0.7166925631396708 0.0
0.6458785458483771 0.6946878992565794 0.0
0.7733575582969163 0.8941098392103913 0.0
0.4457537579383052 0.5273353624588528 0.0
0.163830623786951 0.3903175742448083 0.0
0.6095823984734953 0.8256600013628639 0.0
0.2618074352614998 0.5435604438425528 0.0
0.6287880420949764 0.5875838132975476 0.0
0.3100402147222924 0.4835410260423071 0.0
0.5422177893302824 0.5343158927797464 0.0
0.9964262112680041 0.8213447667248638 0.0
0.4971609598823845 0.6906859160718212 0.0
0.5740517260168769 0.633982031239429 0.0
0.7423299505107201 0.7218768583704394 0.0
0.767147744476665 0.819658485932403 0.0
0.9427329070375209 0.7774595780066723 0.0
0.8375285793481674 0.8869398470561132 0.0
0.2879426409425497 0.5872676364411625 0.0
0.6797562629663748 0.8647676397847667 0.0
1.171674168522591 0.6949964056806914 0.0
0.5261010885606964 0.6055079299963303 0.0
0.7081534744446967 0.8078672678314597 0.0
0.9681672688626206 0.705385299758921 0.0
0.7364069054947873 0.6432919177737106 0.0
0.363826821075015 0.5678764295233764 0.0
0.826170216989844 0.6605791783255148 0.0
0.1284439337099834 0.3602715082199688 0.0
0.518140828090112 0.783905985497134 0.0
0.8452908336054504 0.8167586152211004 0.0
0.2015204468558833 0.492088055688788 0.0
0.4005883523205732 0.7121294304856254 0.0
0.3551392316798573 0.4864133323669936 0.0
0.2501727034998737 0.4443035857235296 0.0
0.857938396055507 0.7390317828783199 0.0
0.9245301815433076 0.8668102132501951 0.0
0.5702050292970205 0.7323438487067678 0.0
1.111607633075016 0.759318252473435 0.0
0.6317193755596126 0.7853891653733797 0.0
0.7921381265818805 0.7497379312370454 0.0
1.088942426366261 0.7015435214091311 0.0
0.5818207607488639 0.5352340257544296 0.0
0.4203532416309484 0.6369649631143086 0.0
0.4854818714173937 0.5131439318707094 0.0
0.4475429831528036 0.5690430472086269 0.0
0.8968753306595262 0.8225547516037004 0.0
0.6339557898063448 0.8543470494763272 0.0
0.3416564411796998 0.6516449771136894 0.0
1.082970576264455 0.7856036465430698 0.0
0.2255204648032354 0.5229464838393291 0.0
0.7335043541589261 0.9012744999286941 0.0
0.9097052989734319 0.6921177492721042 0.0
0.5363428275528405 0.6992389299864537 0.0
0.9657777897300287 0.8588269742066746 0.0
1.025947476617909 0.7556651119714124 0.0
0.1090829970454354 0.3226173037985549 0.0
0.4836644525169279 0.7663103281018557 0.0
0.6910856326166581 0.777867529208468 0.0
0.6694391877434097 0.5946719355048008 0.0
0.2954883530575775 0.4501042133334518 0.0
0.6746032498128595 0.6643957640016517 0.0
1.054636636429828 0.6974583960183274 0.0
0.8939255235163368 0.7470597914537064 0.0
0.3749741568555516 0.6190655430398917 0.0
1.204101441114554 0.6801433534918062 0.0
0.6130053345415899 0.6785345531932346 0.0
0.7679719108452487 0.8562682874000032 0.0
0.9710820219997449 0.8008372590855476 0.0
0.1608022352294362 0.4242591696906621 0.0
0.2865399820604418 0.5141369963640697 0.0
0.1962258775846918 0.4008383427744516 0.0
0.6210920174972845 0.5516143721732873 0.0
0.4843009180093644 0.6583977883024127 0.0
0.5695029195102991 0.8267073580550881 0.0
0.9562891163300477 0.7436031251145003 0.0
0.4174190173896447 0.5044019081507806 0.0
0.410860431802698 0.5535781448116232 0.0
0.8709320861791604 0.9002602580953145 0.0
0.427354757192076 0.7399041791280969 0.0
0.7107884943357746 0.7172753954970394 0.0
1.030382288537246 0.8267335242583146 0.0
0.7737440530215844 0.7115751739064536 0.0
0.8042035044852396 0.9123190309183211 0.0
0.0480920891272324 0.2181807374272496 0.0
0.3695079235280397 0.6886893012630373 0.0
0.773516204411121 0.7830673827025234 0.0
0.302776671534508 0.6210168062901616 0.0
0.7150573728414059 0.6149413270404035 0.0
0.5863276441271683 0.769748656022605 0.0
1.143752049005473 0.6780480059671409 0.0
0.6477132714923303 0.7318578097016951 0.0
0.8380052680878572 0.8531154611905379 0.0
0.5966224054445893 0.6051703156405629 0.0
0.3207240819522855 0.5772784374275386 0.0
0.3520131451607586 0.5263918604440553 0.0
0.8573528491808811 0.6709738722470224 0.0
0.1797236573643203 0.460867988842514 0.0
0.5540828191547277 0.6661566975721369 0.0
1.158039843450239 0.7357536542887966 0.0
0.08638006908591334 0.286237566592474 0.0
0.790861820497242 0.6466611559014377 0.0
0.5362079962218838 0.8121454698907893 0.0
0.9405172130232713 0.6862060282668497 0.0
0.6039359324506977 0.711463595189489 0.0
0.4440093493753478 0.6096873538428137 0.0
0.5500746279087338 0.7620941994763282 0.0
0.2578504496023611 0.5739900063885278 0.0
0.502526452350101 0.6209820553182169 0.0
0.6799833858912959 0.7033681517905728 0.0
0.7183487148906835 0.7518430858176317 0.0
0.8006701240044786 0.8118713608014352 0.0
0.1304684854221093 0.3934039266496895 0.0
1.00789495394612 0.7937868725857601 0.0
0.696960396255943 0.893370944718147 0.0
0.8258315165019564 0.7538365084989149 0.0
0.8462950259502577 0.775614153529746 0.0
0.4082018839227037 0.6749460331934272 0.0
0.7025889307788081 0.8378536687159448 0.0
0.4666676520109517 0.6984557076050861 0.0
[...]
POINT_DATA 531

VECTORS Velocity float
0.0000000000000000 1.0000000000000000 0.0
0.0000000000000000 1.0000000000000000 0.0
2.6381764067851856 -0.9593320458235648 0.0
1.7923079485330058 1.0242947403858380 0.0
0.0000000000000000 1.0000000000000000 0.0
0.0000000000000000 1.0000000000000000 0.0
0.0000000000000000 1.0000000000000000 0.0
0.0000000000000000 1.0000000000000000 0.0
0.0000000000000000 1.0000000000000000 0.0
0.0000000000000000 1.0000000000000000 0.0
0.0000000000000000 1.0000000000000000 0.0
0.0000000000000000 1.0000000000000000 0.0
0.0000000000000000 1.0000000000000000 0.0
0.0000000000000000 1.0000000000000000 0.0
0.0000000000000000 1.0000000000000000 0.0
0.0000000000000000 1.0000000000000000 0.0
0.0000000000000000 1.0000000000000000 0.0
0.0000000000000000 1.0000000000000000 0.0
0.0000000000000000 1.0000000000000000 0.0
0.0000000000000000 1.0000000000000000 0.0
0.0000000000000000 0.0000000000000000 0.0
0.0000000000000000 0.0000000000000000 0.0
0.0000000000000000 0.0000000000000000 0.0
0.0000000000000000 0.0000000000000000 0.0
0.0000000000000000 0.0000000000000000 0.0
0.0000000000000000 0.0000000000000000 0.0
0.0000000000000000 0.0000000000000000 0.0
0.0000000000000000 0.0000000000000000 0.0
0.0000000000000000 0.0000000000000000 0.0
0.0000000000000000 0.0000000000000000 0.0
0.0000000000000000 0.0000000000000000 0.0
0.0000000000000000 0.0000000000000000 0.0
0.0000000000000000 0.0000000000000000 0.0
0.0000000000000000 0.0000000000000000 0.0
0.0000000000000000 0.0000000000000000 0.0
0.0000000000000000 0.0000000000000000 0.0
0.0000000000000000 0.0000000000000000 0.0
0.0000000000000000 0.0000000000000000 0.0
0.0000000000000000 0.0000000000000000 0.0
2.6783070647089038 -1.7943348189091939 0.0
3.6710283289731978 -2.3040082592430884 0.0
3.7609468759008435 -2.2279731131100573 0.0
3.7597422474918143 -1.9710834557211707 0.0
3.8338095339270604 -1.7435809532394526 0.0
3.9083647621385404 -1.4233911026106489 0.0
3.9424877030705274 -1.2428566425107253 0.0
4.0201844744928543 -0.9999117888159007 0.0
3.9436291913928048 -0.6788561056183186 0.0
3.9023357314819234 -0.4117992596993402 0.0
3.7669069888551951 -0.1306232745971420 0.0
3.5651592417161240 0.1445674267185094 0.0
3.4077991135695140 0.3614887684731640 0.0
3.1031242230534875 0.5812800143508577 0.0
2.5520076378234946 1.0830393815508292 0.0
1.7809067966530048 0.9497212347546470 0.0
0.0000000000000000 0.0000000000000000 0.0
0.0000000000000000 0.0000000000000000 0.0
0.0000000000000000 0.0000000000000000 0.0
0.0000000000000000 0.0000000000000000 0.0
0.0000000000000000 0.0000000000000000 0.0
0.0000000000000000 0.0000000000000000 0.0
0.0000000000000000 0.0000000000000000 0.0
0.0000000000000000 0.0000000000000000 0.0
0.0000000000000000 0.0000000000000000 0.0
0.0000000000000000 0.0000000000000000 0.0
0.0000000000000000 0.0000000000000000 0.0
0.0000000000000000 0.0000000000000000 0.0
0.0000000000000000 0.0000000000000000 0.0
0.0000000000000000 0.0000000000000000 0.0
0.0000000000000000 0.0000000000000000 0.0
0.0000000000000000 0.0000000000000000 0.0
0.0000000000000000 0.0000000000000000 0.0
0.0000000000000000 0.0000000000000000 0.0
0.0000000000000000 0.0000000000000000 0.0
0.0000000000000000 0.0000000000000000 0.0
0.0000000000000000 0.0000000000000000 0.0
0.0000000000000000 0.0000000000000000 0.0
0.0000000000000000 0.0000000000000000 0.0
0.0000000000000000 0.0000000000000000 0.0
0.0000000000000000 0.0000000000000000 0.0
0.0000000000000000 0.0000000000000000 0.0
0.0000000000000000 0.0000000000000000 0.0
0.0000000000000000 0.0000000000000000 0.0
3.8869662642397289 2.5733840462197906 0.0
4.2104709983480442 2.0208833608405592 0.0
3.9109550362904786 1.1166511695437977 0.0
3.8232856730825988 2.1997671041205016 0.0
3.7950652016172386 2.9184529185678936 0.0
3.5409409874554578 0.1282431794690729 0.0
3.9038752545628768 3.4869773069916907 0.0
3.6946635154108947 2.4300906133977018 0.0
3.6796999940622031 1.8244219427834327 0.0
3.5616599794140162 1.7049614232801416 0.0
2.8990238104661854 1.8648110712522223 0.0
3.4431235587836921 1.3358882608947249 0.0
3.2848200174977000 1.6832317453448176 0.0
3.1682368391185709 2.3823120326304026 0.0
3.2620872846126145 2.4702892650862216 0.0
3.0951473667821974 -0.4492361104198314 0.0
3.6079049309561286 3.8525068221395506 0.0
2.5270227452563518 2.1256893959159502 0.0
2.9831296959756353 1.4064281911380565 0.0
3.8304342856260738 0.5419686579417354 0.0
2.5222837640615645 0.3879797312229776 0.0
3.5601845452614258 1.1615689583009106 0.0
2.8066251406094378 2.6530504997592481 0.0
3.4916169024502710 4.5882053029548242 0.0
3.6160306309167392 2.6393834831516925 0.0
2.3566113738610985 1.3869039610459768 0.0
4.2551744435129484 2.2589497889374908 0.0
3.9282474892005559 2.5570886260095089 0.0
2.8894874890286868 -0.7786121205553895 0.0
4.0565906184094365 1.6830010375464539 0.0
2.5329407608858352 2.0688905924336569 0.0
2.6058620894997335 1.0614098609784230 0.0
3.8562627102357503 2.7000930128657377 0.0
2.7182257829852312 1.3623393290020280 0.0
3.8046235326014886 -0.3235160676279910 0.0
2.0396574501604285 1.4909340679505554 0.0
2.3979001595192662 0.6399316562121984 0.0
2.2322997095794976 0.0705293840518026 0.0
4.0725770952426581 2.4195359416129278 0.0
2.6516158992094816 1.6988255534108068 0.0
2.7968493210685543 2.4399293983295753 0.0
2.9348221367009768 4.7381024146557396 0.0
2.4567228779676316 1.3106593171612122 0.0
2.5263307943896791 2.8865673799327336 0.0
2.1984421155618876 1.6759952190498826 0.0
3.2785851662323897 3.5018643329384505 0.0
1.8580862643383709 1.7730540190244961 0.0
3.8754694771802178 -0.0026781444824732 0.0
3.4980970674680614 2.3046719204732367 0.0
3.7747498674614341 2.5404684346372370 0.0
3.9657041781466962 1.8979556175671695 0.0
3.9826923381686998 1.9778810825610793 0.0
3.6930745447984274 0.4735737814717105 0.0
3.0416999872373593 1.5216351314224610 0.0
1.6504767763648911 1.6852572692019685 0.0
2.3447558829206656 1.1087900960690420 0.0
2.8797441927713061 -1.0321093749319881 0.0
3.6563304170422684 2.5247722312973258 0.0
3.8772434629926176 1.9460934763107542 0.0
1.5596073648555151 0.0941249414306542 0.0
2.0378905745924101 1.0784557752861368 0.0
3.7270109045616291 3.1763818270110056 0.0
1.1848259787814506 0.4590885229100788 0.0
1.8313909530806456 3.2599691176974459 0.0
1.5417691085965997 0.9006623511815015 0.0
3.8950059412409508 1.4649682430773059 0.0
1.8404973167825152 2.2648558129037908 0.0
1.1224862158214199 0.7555599071214120 0.0
2.1124805899283094 2.3892415621717422 0.0
2.7831032201098238 3.3827887314752401 0.0
3.4509342187096528 1.0776242915580856 0.0
3.6407687479287918 0.6586726117394724 0.0
3.5822428898181338 2.2582587863383621 0.0
3.7563455846220899 -1.0677410303705794 0.0
3.3568711314496649 1.7990886015607204 0.0
4.0108210435620890 1.6850287255729757 0.0
1.6973604039990957 -0.3222776109093983 0.0
1.4459198781373541 1.5237906175271589 0.0
3.4330589564923821 2.6156266818913170 0.0
1.2969997814199636 1.7944812033466542 0.0
3.5802560543041286 2.7152721187649842 0.0
3.8287071793567105 1.0200335007853858 0.0
1.5367947103600514 0.8134212011138047 0.0
1.3808700247343535 1.3256811822040075 0.0
3.8837892594354897 -0.8157405344235928 0.0
1.8250068985253476 1.8450048498095115 0.0
1.5613722333567448 0.8564793833965889 0.0
1.3811073858816398 0.1651984759149148 0.0
3.6867624567182933 2.3796177060586090 0.0
3.8003799185146101 0.2215170211923438 0.0
3.2516947909672504 -0.2349517949081564 0.0
1.5934201448121794 3.1018895436441944 0.0
1.2439752926257257 1.0563093443116582 0.0
4.0761361421108777 2.0873810227137022 0.0
1.3310533581781769 0.8108201181479836 0.0
1.5266063698776717 2.7800035494811794 0.0
3.6254332835414531 2.0666498829914266 0.0
1.4019262875170782 -0.2558382597713839 0.0
3.4598613515031111 0.7972620146332974 0.0
3.1617617453865137 2.5236189008550820 0.0
2.6881177486449706 -1.4031317235869436 0.0
3.9807183535070285 2.5551959792945445 0.0
3.4385452700219270 1.8945027700061323 0.0
3.8024453452803217 0.2578224125639954 0.0
2.0001131005694242 3.0558473400117849 0.0
3.6227160058775900 3.6790702254819179 0.0
2.4432484108724934 4.0337598440505467 0.0
0.8658002801984328 0.8244707572329542 0.0
3.7082959119459629 2.5510564702365897 0.0
1.1250684561916131 0.5944323519243606 0.0
3.0290875341204115 0.2819463321993657 0.0
2.1107674277538027 2.2017185758729920 0.0
3.5789049776440200 2.8277616920317610 0.0
3.0161026270621738 1.0270915189168475 0.0
0.8617112249100738 0.6255766247363123 0.0
4.0973721172464286 1.9746118555924153 0.0
3.9613429819677672 -0.3293255361000479 0.0
3.5908818368223714 1.5724565036231060 0.0
2.2895591760761427 1.5588183054147895 0.0
0.7641786009693016 3.4574472130268603 0.0
1.0061850520918858 0.8719719753440399 0.0
4.1566843558510724 1.8826377163005674 0.0
1.3107044584143044 1.0498769312332550 0.0
1.2331114266441048 0.4779417077691221 0.0
3.2001371499756224 1.8949872154111773 0.0
1.4305288109250529 -0.2917313283993886 0.0
4.1783570906426517 2.3858054915556641 0.0
3.6410421195939890 1.5808996218656239 0.0
3.1399390746623630 2.2237071477535020 0.0
2.8998698119182835 3.0153845678520055 0.0
3.9156839403264332 3.2641799046215212 0.0
1.0360463558500195 0.3160148270031881 0.0
1.7260201567907605 2.4100113974621769 0.0
3.9492929768988692 2.5281545862100816 0.0
3.6865326680714956 -1.3615155962501779 0.0
1.2131512976574641 3.3076050609160110 0.0
1.2125941418981598 0.4891031280939898 0.0
1.0045030638758907 0.4008607283814234 0.0
0.9963554828207956 0.0578562932011138 0.0
4.0323775823111792 2.4328946527284865 0.0
3.7917365238330190 2.8302297068599813 0.0
2.8302969812447842 1.6817987210990883 0.0
1.0330572844487493 1.4898931195299394 0.0
3.8694565322518306 2.6163220788300476 0.0
4.0790988770045384 2.2878902633797442 0.0
4.2257174898150582 2.0994961335234930 0.0
3.9925147183569356 1.7913594300900710 0.0
1.6336061443217693 2.3201663026567587 0.0
3.7981633486848829 -0.0710842832671220 0.0
1.2734915715917823 0.6315807690319810 0.0
3.8777632032685401 1.4665292939317542 0.0
3.9320864602281391 1.3414658827237147 0.0
2.5812118424432158 1.7999849334016071 0.0
3.1393207165528159 1.5102510975951156 0.0
3.0901522795602920 2.1284084690767031 0.0
3.0537303183355085 1.9471457988074363 0.0
3.3739727917570717 1.7092612046424140 0.0
3.9874416014245524 2.2200992617488002 0.0
1.1456775113765554 0.1646667524645400 0.0
2.8802608641043657 2.1133520705245807 0.0
2.5570389912244309 0.8689884339376908 0.0
2.7877128957912345 2.0347799394478217 0.0
2.5909705492498150 -0.0070251299209964 0.0
4.0259020829393677 -0.6202431853021212 0.0
0.9409602633009518 0.9594966715143856 0.0
2.3133017900053234 -1.0759110984585434 0.0
3.9506996093584390 2.5543260719615724 0.0
2.8483043487053803 1.4338664466872784 0.0
3.1001619807630241 1.7737727677178177 0.0
3.4905230396860638 3.9790290272948079 0.0
0.5449275634599647 1.6427881004511671 0.0
3.7086092773131329 2.7047480101220165 0.0
1.5387365461964089 1.8391694804083281 0.0
2.9605692135017589 -0.6587336149170998 0.0
3.8008209594507854 0.8110784550745918 0.0
3.5618128179466897 2.4462484072752102 0.0
0.6622256107773472 0.5277953235670296 0.0
1.1973914666741354 2.2392249328052745 0.0
3.1075846776416758 2.7621561928849832 0.0
1.7179499184065323 2.9229107346393195 0.0
1.0161826898854895 1.8861128394052054 0.0
0.8391371998664008 1.5824952909316745 0.0
1.6638220873344567 3.0814001372858826 0.0
1.4693650544928174 1.1784240395781791 0.0
2.1901696377570619 -1.4150765683369761 0.0
2.1608359150977487 1.6274241761093851 0.0
0.7048564615225187 0.3067619240036982 0.0
0.7809693516774517 0.5939584081676588 0.0
3.9084752614388365 3.4644773545376508 0.0
1.2928026207287115 -0.0729230460705511 0.0
3.2412282420032432 0.8255390158055032 0.0
3.8788122876204123 -0.0628715190328654 0.0
3.8193933067535535 2.3718774435434655 0.0
1.1250736841821876 3.3292141099609109 0.0
2.6981038951073719 0.7036807627138930 0.0
0.6282824643075183 0.3806080315068167 0.0
3.5184358445719028 -0.3866141658604708 0.0
3.6507823811978826 2.6554556137166641 0.0
0.8155358176420668 -0.0092252251938720 0.0
2.6995105422146355 -0.2173536844905385 0.0
2.7516263572334299 1.4809558580654851 0.0
3.6938685630140498 -1.7148888789781249 0.0
0.8747486879388107 0.1114012490008560 0.0
2.5303730240718001 1.5844415907124838 0.0
2.8640367617121738 2.3895196690434788 0.0
2.2515090591121885 1.9425867787704334 0.0
3.8360092524244469 2.5229984897995612 0.0
3.7768715593276632 1.8799779077095546 0.0
2.5992477971886578 1.1008264952807105 0.0
3.7040068394183381 3.7876737470985380 0.0
4.1168815566763213 2.0117033255547412 0.0
0.9680856022078045 0.6071423381710737 0.0
3.1437998973891981 3.2423531587789509 0.0
2.7702244155116533 1.6554550210874985 0.0
4.1553227166719289 2.1055947475024257 0.0
4.0948466408914417 1.9070049253981811 0.0
3.0827324882046003 2.2096123807058490 0.0
3.6895632062681809 2.5407955605864072 0.0
1.2665360972144004 -0.7676648953125322 0.0
3.4301946645917076 0.6536763322313839 0.0
3.8553142675815266 0.2038312866696084 0.0
1.6698699475548699 4.0683839371842003 0.0
2.2872339730306659 1.8989984802131208 0.0
0.7265219431362524 0.6044899413799690 0.0
3.9044547244923633 2.5626956835954178 0.0
4.2030858392204751 2.0292740092537129 0.0
3.9099320186806956 1.1392391631112202 0.0
3.7889405696684677 2.1791492776333348 0.0
3.8043351976352153 2.8991930126743219 0.0
3.5418859985262956 0.1427199780565199 0.0
3.9086301778929591 3.4775385680121653 0.0
3.7359520305013230 2.4547291209762703 0.0
3.6369988878685846 1.8375901170781803 0.0
3.6089937090960329 1.7327145644315061 0.0
2.8566661225634369 1.8308939102166162 0.0
3.4834657948446539 1.3588557011600513 0.0
3.2338557008331832 1.6617705986257705 0.0
3.1438432395071119 2.3470709909597405 0.0
3.3024874719866126 2.4666839590247989 0.0
3.0958461988924233 -0.4470848155715405 0.0
3.6085682061670870 3.8513675115186361 0.0
2.5716282939441353 2.1423739963373016 0.0
2.9350673773097360 1.3957557970658079 0.0
3.8143005080076260 0.5584309603763495 0.0
2.5441703421137514 0.4004844983430053 0.0
3.5291306500053463 1.1746962628314972 0.0
2.8013777519217018 2.6360540539787687 0.0
3.4915563711004549 4.5882179487359327 0.0
3.6324626450059196 2.6350531767794938 0.0
2.3099461730665678 1.3597017986081938 0.0
4.2556234833820064 2.2625783211019219 0.0
3.9225755094584280 2.5456991584466491 0.0
2.8893960103524239 -0.7787914082427968 0.0
4.0518424791356855 1.7059774983914766 0.0
2.5165668167245463 2.0435662961370862 0.0
2.6533665399382604 1.0822535090940799 0.0
3.8695983400600600 2.6793156859031342 0.0
2.7698201872017454 1.3895009660696445 0.0
3.8022994890766970 -0.3174894117237738 0.0
2.0043400792974735 1.4625903914716414 0.0
2.4337216990602513 0.6524045240952829 0.0
2.2377021387957527 0.0760960571639723 0.0
4.0941126613992260 2.4333316816298285 0.0
2.6135053470632479 1.6968818724524362 0.0
2.8265412452955112 2.4397122328006589 0.0
2.9347741214807028 4.7381284833237434 0.0
2.4099943750152431 1.2862358734495403 0.0
2.5266439689716931 2.8836430718113313 0.0
2.2425305126878206 1.7066462540705325 0.0
3.2820008531955129 3.5009601482130495 0.0
1.8970717466259746 1.7791282775433701 0.0
3.8660482493589021 0.0074369738868708 0.0
3.4674130510873673 2.2715019684352513 0.0
3.8086360362437821 2.5472051671241731 0.0
4.0000983068761222 1.9171630289698156 0.0
3.9437251277953984 1.9834392845505342 0.0
3.6903255567412891 0.4913252531636569 0.0
3.0141136364830303 1.5275352153358621 0.0
1.6481321040762071 1.6796519200719413 0.0
2.2992067581464539 1.0910701816349830 0.0
2.8796494264542147 -1.0323286264624942 0.0
3.6908023209140559 2.5255910004165227 0.0
3.8328230377429588 1.9324724576344343 0.0
1.5732861414890931 0.1022157436319437 0.0
2.0804391344704407 1.0995799571851887 0.0
3.7335980929462416 3.1620802300955599 0.0
1.2138640315550202 0.4702988271169560 0.0
1.8313791991241171 3.2599846809658199 0.0
1.5082449624926078 0.8792019686505781 0.0
3.8698831854176992 1.4856072907981810 0.0
1.8405953677038389 2.2648203053929739 0.0
1.1039475855504131 0.7394493483667810 0.0
2.1210145684292425 2.3877834961969087 0.0
2.7833225861736324 3.3825222573010536 0.0
3.4775974152699711 1.0995379376159542 0.0
3.6220131493164094 0.6689655562643593 0.0
3.5478925422049508 2.2297495730333896 0.0
3.7567275993411866 -1.0678120181802893 0.0
3.3074208635485061 1.7746500074393479 0.0
4.0322974862454384 1.7061809737697475 0.0
1.6970414661078959 -0.3219780937623082 0.0
1.4774052007502849 1.5373317083649081 0.0
3.4248108531395021 2.5875134580597696 0.0
1.3220887863891211 1.7966659861495069 0.0
3.6074323699506903 2.7038821256840846 0.0
3.8073297491367883 1.0409503479607416 0.0
1.5012742044292609 0.7957868254505742 0.0
1.3711913802594526 1.3112453554608023 0.0
3.8839143141702417 -0.8140175605180224 0.0
1.8251748630943645 1.8442662370047160 0.0
1.5339931663426860 0.8515254960673561 0.0
1.4026712206655225 0.1727471752012881 0.0
3.6592237178337310 2.3532174588717827 0.0
3.7888639836042355 0.2289952790688238 0.0
3.2535045150695434 -0.2255279124572254 0.0
1.5934187120023642 3.1018883780134345 0.0
1.2148049524676745 1.0313008400794372 0.0
4.0442256072694587 2.0779919153419999 0.0
1.3660146535245401 0.8314473051924426 0.0
1.5274913037384183 2.7800539845071972 0.0
3.6730260742033725 2.0935248009028822 0.0
1.4030798715521835 -0.2539822169967019 0.0
3.4739338220182221 0.8176523756911063 0.0
3.1568171663372571 2.4984508666036418 0.0
2.6881068921962727 -1.4031923131850821 0.0
4.0004532368774308 2.5643825160904665 0.0
3.3903345562685900 1.8933210973986545 0.0
3.7944600759667595 0.2715849695922677 0.0
2.0001031412693782 3.0559727086373143 0.0
3.6251719689374418 3.6754494195248317 0.0
2.4431207818135485 4.0337779588721139 0.0
0.8894008618066894 0.8438376383721483 0.0
3.6990345225296841 2.5225589522107086 0.0
1.0955435881358033 0.5791491254406721 0.0
3.0405886756169171 0.2961628558758027 0.0
2.1293465710941537 2.2020380195735396 0.0
3.6009675849599474 2.8179656830773046 0.0
2.9967309466060406 1.0343571356041954 0.0
0.8425468637518693 0.6100247270617517 0.0
4.1278630755504606 1.9937730688368078 0.0
3.9568351220076128 -0.3248320186421364 0.0
3.6338672929869258 1.5956456938852948 0.0
2.2686117761555353 1.5596989338089922 0.0
0.7641786009693017 3.4574472130268612 0.0
0.9924084515226060 0.8566702047167407 0.0
4.1461322736155592 1.8972394983123284 0.0
1.3064966631246873 1.0425615292344628 0.0
1.2675876834042523 0.4931018783612712 0.0
3.1507634006145953 1.8661871752250379 0.0
1.4302000315293424 -0.2917695306710492 0.0
4.1748523257040562 2.3864749564822265 0.0
3.6013348561316407 1.5934701020298865 0.0
3.1877182530754196 2.2477458929633856 0.0
2.8970985686622837 3.0023667249480934 0.0
3.9274254171700136 3.2584914434718977 0.0
1.0611337927624049 0.3241376953226720 0.0
1.7260977152343497 2.4101709428089988 0.0
3.9545524631311544 2.5186840746807246 0.0
3.6867462893568286 -1.3618553928883723 0.0
1.2131521707433846 3.3076050357264677 0.0
1.2435789684635168 0.5022723985175996 0.0
0.9755170867437973 0.3881028441621806 0.0
1.0131077580106174 0.0620428317806871 0.0
4.0249301812132030 2.4226043671769983 0.0
3.8047818520348113 2.8067016480986884 0.0
2.7836969628069670 1.6510691253664878 0.0
1.0320591077826025 1.4865499576587493 0.0
3.8878935433782384 2.6004177749642343 0.0
4.1065688223396553 2.3057276194048879 0.0
4.2310624699652681 2.1069426817786345 0.0
3.9622820682556701 1.8073820235278177 0.0
1.6335904262886538 2.3202187360412574 0.0
3.7940032906819998 -0.0594085928139613 0.0
1.2464714446126803 0.6212665458259629 0.0
3.8962660300499126 1.4898793464579407 0.0
3.9330966430622527 1.3681777622480413 0.0
2.5590363725257967 1.7730480469755898 0.0
3.0885348736647211 1.4967383654573883 0.0
3.0581464681255945 2.0946770406259922 0.0
3.1059965370264915 1.9783542742329352 0.0
3.4236610833686876 1.7328876788221179 0.0
3.9517649119237919 2.2070595641464488 0.0
1.1538176279607137 0.1682203304484817 0.0
2.9263522957076296 2.1174936884481332 0.0
2.5986563652309069 0.8881978581703975 0.0
2.7486591852498976 2.0028169839969148 0.0
2.6001292862288334 0.0036744467002950 0.0
4.0244579025893463 -0.6181191818035252 0.0
0.9406112661755992 0.9582651277352132 0.0
2.3132949931032729 -1.0759097415305798 0.0