# vtk DataFile Version 3.0
LucasCarvalhoTCC Results
ASCII

DATASET POLYDATA
FIELD FieldData 1
TIME 1 1 double
4.2

POINTS 531 float
0.02430399999999999 0.16425 0.0
0.5913384 0.481878 0.0
1.30475 0.591832 0.0
0.774126 0.951272 0.0
0.04779564148251592 0.1966194329439859 0.0
0.0726092153537953 0.2279866320496896 0.0
0.09876577335895967 0.2582426022760065 0.0
0.1262817198684718 0.2872673048853742 0.0
0.1551671626852806 0.3149288071400502 0.0
0.1854238368919928 0.3410826624766006 0.0
0.2170424591499632 0.3655716640299072 0.0
0.2499995164635996 0.3882263409476824 0.0
0.2842534387828506 0.4088665906889567 0.0
0.3197403359862048 0.4273050841371062 0.0
0.3563695945475563 0.4433531534921038 0.0
0.3940201673622058 0.4568300511916809 0.0
0.4325386107291805 0.4675762214989666 0.0
0.4717406913237268 0.4754709112408955 0.0
0.5114182513144845 0.480453442081874 0.0
0.5513531678859215 0.4825464217651069 0.0
0.6182637923774223 0.5096055604109244 0.0
0.647389101376845 0.5350126187545199 0.0
0.6784752958296183 0.5579802184492302 0.0
0.7112421079139344 0.5784810076698811 0.0
0.7454110434104482 0.5965507527581431 0.0
0.7807301979183381 0.6122562812860965 0.0
0.8169827939052532 0.6256694297140926 0.0
0.853985522124928 0.6368498290413532 0.0
0.8915818964261243 0.6458353363890481 0.0
0.9296339776508085 0.6526379336565091 0.0
0.9680139759519513 0.6572432424840469 0.0
1.006596418266983 0.659612648128084 0.0
1.045251165872634 0.6596877658251245 0.0
1.083837680945672 0.657397570658483 0.0
1.122201320191055 0.6526688455666412 0.0
1.160173053543044 0.6454405726452737 0.0
1.197574286953346 0.6356824063786186 0.0
1.23422961949795 0.6234159704281613 0.0
1.26998758503999 0.6087366500005643 0.0
1.285086682927543 0.6256533177085738 0.0
1.263669745906668 0.6583917156018083 0.0
1.240480125919214 0.6898988493917133 0.0
1.215532715641304 0.7200329197235763 0.0
1.188869833862339 0.7486599839005789 0.0
1.160556835593143 0.7756559317113654 0.0
1.130680194163798 0.8009104211039757 0.0
1.099347083827048 0.8243335727704395 0.0
1.066684425336412 0.8458643604021228 0.0
1.03283497048792 0.8654772531176074 0.0
0.9979492572630678 0.8831824104874066 0.0
0.9621749986495024 0.8990166556695112 0.0
0.9256475378616493 0.9130272060048579 0.0
0.8884846540507749 0.9252538945090274 0.0
0.8507866567183312 0.935715378288671 0.0
0.8126405010322847 0.9444016349017643 0.0
0.7365055179612304 0.9396161853607135 0.0
0.699310855231089 0.9266666891603924 0.0
0.6626179171945521 0.9123577070090924 0.0
0.6264901449910028 0.8966765244755546 0.0
0.5909789825447118 0.8796450886595113 0.0
0.556124897941028 0.8613059841617771 0.0
0.5219601957009091 0.8417124664434518 0.0
0.4885110616878257 0.8209207172498462 0.0
0.4558007060429968 0.7989848675704875 0.0
0.4238520247653796 0.775953675763176 0.0
0.3926900138417566 0.7518687036338616 0.0
0.3623437622133722 0.7267636709390595 0.0
0.3328479550295906 0.7006647540504483 0.0
0.3042438201183181 0.6735915983461908 0.0
0.2765795358619001 0.6455588748284606 0.0
0.2499101143933102 0.6165781952942546 0.0
0.2242967982692083 0.5866601984136335 0.0
0.1998060807431611 0.5558166834807132 0.0
0.1765083808984156 0.5240625786010467 0.0
0.154476512720734 0.491417660368959 0.0
0.133784033184808 0.457907916333494 0.0
0.114503564227142 0.4235664945146766 0.0
0.09670517293008124 0.3884342245925089 0.0
0.0804548910754031 0.3525597611689231 0.0
0.06581337946329963 0.3159993090744527 0.0
0.05283482490365372 0.2788161107032479 0.0
0.0415660226296666 0.2410796291505872 0.0
0.03204569406625649 0.2028646095712164 0.0
0.5272009874003867 0.6419624505772817 0.0
0.7421848286576707 0.7716726266421574 0.0
0.8789503364783713 0.7829234141383637 0.0
0.6149390992905563 0.7449438030688011 0.0
0.4064556042659638 0.5942834991165423 0.0
0.9875021850865396 0.7666507358101158 0.0
0.3188065960661005 0.539594034984892 0.0
0.61365100263957 0.6399487878797632 0.0
0.8049090660915541 0.8464379870891131 0.0
0.7099820328572021 0.6828840522539854 0.0
0.5239467234991928 0.7406922291088611 0.0
0.8154056325591208 0.7211774015928547 0.0
0.6676178829014909 0.8152713180209475 0.0
0.4416080359619968 0.674360953773491 0.0
0.489443615375965 0.5654986742123573 0.0
1.076665773779852 0.7387182918829318 0.0
0.250390543112057 0.4877450112830265 0.0
0.5736819937919005 0.5790366884881447 0.0
0.7263706755366466 0.8615301097563091 0.0
0.940143307772686 0.8233944909985552 0.0
0.927065543677544 0.7236459161626674 0.0
0.8744389806957806 0.8609114380468947 0.0
0.336888362650554 0.6081958070931937 0.0
0.2030757334857187 0.4383942902513459 0.0
0.3861483329720647 0.5255533415902591 0.0
0.5621001921466506 0.7923778419149285 0.0
0.6822897332295245 0.7428043323059399 0.0
0.5764061681675353 0.6881266532454204 0.0
1.129195449682892 0.7163224153578123 0.0
0.8157794419559141 0.7831214907157077 0.0
0.3806644703311284 0.6554275822782399 0.0
0.7695737871052837 0.669593045341503 0.0
0.4699375460410929 0.6217118815516158 0.0
0.6830867370872363 0.630350317562806 0.0
1.040416897214502 0.7929392348941093 0.0
0.4604428393605979 0.7321209818568342 0.0
0.8729552856459739 0.7015083313474691 0.0
1.017010765275644 0.7166925631396708 0.0
0.6458785458483771 0.6946878992565794 0.0
0.7733575582969163 0.8941098392103913 0.0
0.4457537579383052 0.5273353624588528 0.0
0.163830623786951 0.3903175742448083 0.0
0.6095823984734953 0.8256600013628639 0.0
0.2618074352614998 0.5435604438425528 0.0
0.6287880420949764 0.5875838132975476 0.0
0.3100402147222924 0.4835410260423071 0.0
0.5422177893302824 0.5343158927797464 0.0
0.9964262112680041 0.8213447667248638 0.0
0.4971609598823845 0.6906859160718212 0.0
0.5740517260168769 0.633982031239429 0.0
0.7423299505107201 0.7218768583704394 0.0
0.767147744476665 0.819658485932403 0.0
0.9427329070375209 0.7774595780066723 0.0
0.8375285793481674 0.8869398470561132 0.0
0.2879426409425497 0.5872676364411625 0.0
0.6797562629663748 0.8647676397847667 0.0
1.171674168522591 0.6949964056806914 0.0
0.5261010885606964 0.6055079299963303 0.0
0.7081534744446967 0.8078672678314597 0.0
0.9681672688626206 0.705385299758921 0.0
0.7364069054947873 0.6432919177737106 0.0
0.363826821075015 0.5678764295233764 0.0
0.826170216989844 0.6605791783255148 0.0
0.1284439337099834 0.3602715082199688 0.0
0.518140828090112 0.783905985497134 0.0
0.8452908336054504 0.8167586152211004 0.0
0.2015204468558833 0.492088055688788 0.0
0.4005883523205732 0.7121294304856254 0.0
0.3551392316798573 0.4864133323669936 0.0
0.2501727034998737 0.4443035857235296 0.0
0.857938396055507 0.7390317828783199 0.0
0.9245301815433076 0.8668102132501951 0.0
0.5702050292970205 0.7323438487067678 0.0
1.111607633075016 0.759318252473435 0.0
0.6317193755596126 0.7853891653733797 0.0
0.7921381265818805 0.7497379312370454 0.0
1.088942426366261 0.7015435214091311 0.0
0.5818207607488639 0.5352340257544296 0.0
0.4203532416309484 0.6369649631143086 0.0
0.4854818714173937 0.5131439318707094 0.0
0.4475429831528036 0.5690430472086269 0.0
0.8968753306595262 0.8225547516037004 0.0
0.6339557898063448 0.8543470494763272 0.0
0.3416564411796998 0.6516449771136894 0.0
1.082970576264455 0.7856036465430698 0.0
0.2255204648032354 0.5229464838393291 0.0
0.7335043541589261 0.9012744999286941 0.0
0.9097052989734319 0.6921177492721042 0.0
0.5363428275528405 0.6992389299864537 0.0
0.9657777897300287 0.8588269742066746 0.0
1.025947476617909 0.7556651119714124 0.0
0.1090829970454354 0.3226173037985549 0.0
0.4836644525169279 0.7663103281018557 0.0
0.6910856326166581 0.777867529208468 0.0
0.6694391877434097 0.5946719355048008 0.0
0.2954883530575775 0.4501042133334518 0.0
0.6746032498128595 0.6643957640016517 0.0
1.054636636429828 0.6974583960183274 0.0
0.8939255235163368 0.7470597914537064 0.0
0.3749741568555516 0.6190655430398917 0.0
1.204101441114554 0.6801433534918062 0.0
0.6130053345415899 0.6785345531932346 0.0
0.7679719108452487 0.8562682874000032 0.0
0.9710820219997449 0.8008372590855476 0.0
0.1608022352294362 0.4242591696906621 0.0
0.2865399820604418 0.5141369963640697 0.0
0.1962258775846918 0.4008383427744516 0.0
0.6210920174972845 0.5516143721732873 0.0
0.4843009180093644 0.6583977883024127 0.0
0.5695029195102991 0.8267073580550881 0.0
0.9562891163300477 0.7436031251145003 0.0
0.4174190173896447 0.5044019081507806 0.0
0.410860431802698 0.5535781448116232 0.0
0.8709320861791604 0.9002602580953145 0.0
0.427354757192076 0.7399041791280969 0.0
0.7107884943357746 0.7172753954970394 0.0
1.030382288537246 0.8267335242583146 0.0
0.7737440530215844 0.7115751739064536 0.0
0.8042035044852396 0.9123190309183211 0.0
0.0480920891272324 0.2181807374272496 0.0
0.3695079235280397 0.6886893012630373 0.0
0.773516204411121 0.7830673827025234 0.0
0.302776671534508 0.6210168062901616 0.0
0.7150573728414059 0.6149413270404035 0.0
0.5863276441271683 0.769748656022605 0.0
1.143752049005473 0.6780480059671409 0.0
0.6477132714923303 0.7318578097016951 0.0
0.8380052680878572 0.8531154611905379 0.0
0.5966224054445893 0.6051703156405629 0.0
0.3207240819522855 0.5772784374275386 0.0
0.3520131451607586 0.5263918604440553 0.0
0.8573528491808811 0.6709738722470224 0.0
0.1797236573643203 0.460867988842514 0.0
0.5540828191547277 0.6661566975721369 0.0
1.158039843450239 0.7357536542887966 0.0
0.08638006908591334 0.286237566592474 0.0
0.790861820497242 0.6466611559014377 0.0
0.5362079962218838 0.8121454698907893 0.0
0.9405172130232713 0.6862060282668497 0.0
0.6039359324506977 0.711463595189489 0.0
0.4440093493753478 0.6096873538428137 0.0
0.5500746279087338 0.7620941994763282 0.0
0.2578504496023611 0.5739900063885278 0.0
0.502526452350101 0.6209820553182169 0.0
0.6799833858912959 0.7033681517905728 0.0
0.7183487148906835 0.7518430858176317 0.0
0.8006701240044786 0.8118713608014352 0.0
0.1304684854221093 0.3934039266496895 0.0
1.00789495394612 0.7937868725857601 0.0
0.696960396255943 0.893370944718147 0.0
0.8258315165019564 0.7538365084989149 0.0
0.8462950259502577 0.775614153529746 0.0
0.4082018839227037 0.6749460331934272 0.0
0.7025889307788081 0.8378536687159448 0.0
0.4666676520109517 0.6984557076050861 0.0
[...]
POINT_DATA 531

VECTORS Velocity float
0.0000000000000000 1.0000000000000000 0.0
0.0000000000000000 1.0000000000000000 0.0
2.6381845133768635 -0.9593342406375364 0.0
1.7797147556383273 1.0218540730495611 0.0
0.0000000000000000 1.0000000000000000 0.0
0.0000000000000000 1.0000000000000000 0.0
0.0000000000000000 1.0000000000000000 0.0
0.0000000000000000 1.0000000000000000 0.0
0.0000000000000000 1.0000000000000000 0.0
0.0000000000000000 1.0000000000000000 0.0
0.0000000000000000 1.0000000000000000 0.0
0.0000000000000000 1.0000000000000000 0.0
0.0000000000000000 1.0000000000000000 0.0
0.0000000000000000 1.0000000000000000 0.0
0.0000000000000000 1.0000000000000000 0.0
0.0000000000000000 1.0000000000000000 0.0
0.0000000000000000 1.0000000000000000 0.0
0.0000000000000000 1.0000000000000000 0.0
0.0000000000000000 1.0000000000000000 0.0
0.0000000000000000 1.0000000000000000 0.0
0.0000000000000000 0.0000000000000000 0.0
0.0000000000000000 0.0000000000000000 0.0
0.0000000000000000 0.0000000000000000 0.0
0.0000000000000000 0.0000000000000000 0.0
0.0000000000000000 0.0000000000000000 0.0
0.0000000000000000 0.0000000000000000 0.0
0.0000000000000000 0.0000000000000000 0.0
0.0000000000000000 0.0000000000000000 0.0
0.0000000000000000 0.0000000000000000 0.0
0.0000000000000000 0.0000000000000000 0.0
0.0000000000000000 0.0000000000000000 0.0
0.0000000000000000 0.0000000000000000 0.0
0.0000000000000000 0.0000000000000000 0.0
0.0000000000000000 0.0000000000000000 0.0
0.0000000000000000 0.0000000000000000 0.0
0.0000000000000000 0.0000000000000000 0.0
0.0000000000000000 0.0000000000000000 0.0
0.0000000000000000 0.0000000000000000 0.0
0.0000000000000000 0.0000000000000000 0.0
2.6782997776490727 -1.7943033227573415 0.0
3.6708092877078018 -2.3037296858966880 0.0
3.7614298969379276 -2.2275331714540192 0.0
3.7618363570266053 -1.9745248788739251 0.0
3.8488475734827503 -1.7573766730010636 0.0
3.9438286099139250 -1.4514752150598840 0.0
3.9958060270021751 -1.2896157076045658 0.0
4.1057087582407075 -1.0582344643229655 0.0
4.0669583649481682 -0.7532556105614897 0.0
4.0395575018333378 -0.4862872594125041 0.0
3.9024393105615141 -0.1954389726580180 0.0
3.6858993916170482 0.0950396229080755 0.0
3.5067988616645431 0.3217164116323823 0.0
3.1650834722979342 0.5592967888004705 0.0
2.5694044250032215 1.0887404877607778 0.0
1.7561809801925545 0.9472821825804419 0.0
0.0000000000000000 0.0000000000000000 0.0
0.0000000000000000 0.0000000000000000 0.0
0.0000000000000000 0.0000000000000000 0.0
0.0000000000000000 0.0000000000000000 0.0
0.0000000000000000 0.0000000000000000 0.0
0.0000000000000000 0.0000000000000000 0.0
0.0000000000000000 0.0000000000000000 0.0
0.0000000000000000 0.0000000000000000 0.0
0.0000000000000000 0.0000000000000000 0.0
0.0000000000000000 0.0000000000000000 0.0
0.0000000000000000 0.0000000000000000 0.0
0.0000000000000000 0.0000000000000000 0.0
0.0000000000000000 0.0000000000000000 0.0
0.0000000000000000 0.0000000000000000 0.0
0.0000000000000000 0.0000000000000000 0.0
0.0000000000000000 0.0000000000000000 0.0
0.0000000000000000 0.0000000000000000 0.0
0.0000000000000000 0.0000000000000000 0.0
0.0000000000000000 0.0000000000000000 0.0
0.0000000000000000 0.0000000000000000 0.0
0.0000000000000000 0.0000000000000000 0.0
0.0000000000000000 0.0000000000000000 0.0
0.0000000000000000 0.0000000000000000 0.0
0.0000000000000000 0.0000000000000000 0.0
0.0000000000000000 0.0000000000000000 0.0
0.0000000000000000 0.0000000000000000 0.0
0.0000000000000000 0.0000000000000000 0.0
0.0000000000000000 0.0000000000000000 0.0
3.9592392705310355 2.5981676688631059 0.0
4.2725337968265515 2.0979322370274236 0.0
3.9200188110114205 1.1553361915289961 0.0
3.8368275792002984 2.2078388272466229 0.0
3.8124425304833687 2.9214277726123070 0.0
3.4819612843498828 0.1027013407267892 0.0
3.9067922946321154 3.4805737217361630 0.0
3.7431271671092823 2.4402179272238742 0.0
3.7238294800688077 1.9010568405328072 0.0
3.5669422926626360 1.7196113107881952 0.0
2.8629643754487692 1.8269602418728728 0.0
3.3918074604332387 1.3568106923975274 0.0
3.2473791078371748 1.6735003296221340 0.0
3.1642129756611808 2.3599364795624966 0.0
3.2641489326590869 2.4987011684411962 0.0
3.0503137862725089 -0.4776447868923697 0.0
3.6095384678611953 3.8494453851925079 0.0
2.5057361689779225 2.1179147661187576 0.0
2.9363775303999793 1.4020016668308612 0.0
3.8888171801847036 0.5457930725745541 0.0
2.4117241237282174 0.3758820616095150 0.0
3.6290241724241334 1.2043588274156594 0.0
2.8011531783191956 2.6383673922404531 0.0
3.4917208398548185 4.5880005597045512 0.0
3.6263050287513288 2.6429866978231287 0.0
2.2956305759861841 1.3505985053623017 0.0
4.3139466920727543 2.3163951824148281 0.0
3.9893725209635060 2.5801044513094520 0.0
2.8649355696820473 -0.7878718239252505 0.0
4.1047905065806933 1.7561896239100732 0.0
2.5217894935141802 2.0451210480913860 0.0
2.5607662802966615 1.0613138109929559 0.0
3.9078729432366295 2.7246925846685279 0.0
2.7032014719139292 1.3460620617216899 0.0
3.8190709499669322 -0.3807439857212117 0.0
1.9961783204168213 1.4568125238620371 0.0
2.3010107593261835 0.6230486598161002 0.0
2.1460066565904228 0.0551312863309360 0.0
4.1370805620650275 2.4576431894482420 0.0
2.6200286385145777 1.7017732484977408 0.0
2.7982484178443712 2.4509859023326475 0.0
2.9347461622840321 4.7381305079719986 0.0
2.3994596706182447 1.2803919816071792 0.0
2.5249004737335627 2.8812010850324263 0.0
2.1725015724287595 1.6496303421163718 0.0
3.2846041138155360 3.5022689475894744 0.0
1.8241761707613189 1.7695664586718305 0.0
3.9422839659807800 -0.0480888225890018 0.0
3.5030954984213030 2.2871867874348091 0.0
3.8418073965035364 2.5639921195483892 0.0
3.9865102707489575 1.9560779050717378 0.0
4.0311657352768444 2.0512389846037005 0.0
3.6625636709536988 0.4669886824064655 0.0
3.0746477620166961 1.5653144242765704 0.0
1.6463038567615353 1.6793290465511097 0.0
2.2846306494466666 1.0824578421232005 0.0
2.8697908840441144 -1.0427283761944961 0.0
3.7011832819130950 2.5512370770634174 0.0
3.8890943000754428 1.9687361146875297 0.0
1.4769001185986632 0.0835699892266281 0.0
2.0145495243736651 1.0822900017932953 0.0
3.7325362358386291 3.1718995252990982 0.0
1.1387162320843103 0.4478179104029143 0.0
1.8313795513799871 3.2599853613427303 0.0
1.5015072272731980 0.8728999558261958 0.0
3.9578318613879286 1.5312037534697498 0.0
1.8405287913195651 2.2640087920215888 0.0
1.1031348799598082 0.7365035590712962 0.0
2.1199673575899975 2.3899660035031456 0.0
2.7845194983787955 3.3822002170073047 0.0
3.3874303292976538 1.0860936386741207 0.0
3.7395824463738370 0.6614322771789978 0.0
3.5863237909059915 2.2455987603275749 0.0
3.7615382235854917 -1.1045290393970648 0.0
3.3221337314985608 1.7856975158254624 0.0
4.0291444983822258 1.7476345953489854 0.0
1.6608417900903385 -0.3286206156650763 0.0
1.4167903434661242 1.5122396955947575 0.0
3.4436250918634403 2.6018780767737355 0.0
1.2863029713110345 1.7995017635879282 0.0
3.5947817197335659 2.7389091980403690 0.0
3.8917935992934201 1.0616510308360021 0.0
1.4941702494095657 0.7910031330684121 0.0
1.3731972692276344 1.3126253931851131 0.0
3.9056116194892234 -0.8824851804624643 0.0
1.8247511927228750 1.8428333142141191 0.0
1.5280950975410452 0.8477573783964627 0.0
1.3060139075622992 0.1603022700762954 0.0
3.7076893596448284 2.3730533495045911 0.0
3.9200610194529402 0.1883467297335785 0.0
3.1893114671658886 -0.2746844199830413 0.0
1.5934204118692969 3.1018874769308691 0.0
1.2102423894343326 1.0280587512177355 0.0
4.1057750357088576 2.1259946202165367 0.0
1.3141960455917543 0.7967147066748711 0.0
1.5292245094687025 2.7802626535548112 0.0
3.6491395351667428 2.0810567627808707 0.0
1.3558264535949731 -0.2620236914642430 0.0
3.3889737835282299 0.7982102746340348 0.0
3.1597792042039741 2.5054548516198829 0.0
2.6864475677466380 -1.4065052463741148 0.0
4.0523053400619764 2.5948036823798626 0.0
3.4356178382475377 1.9301184162522047 0.0
3.8150004649515110 0.2407686161816499 0.0
2.0001044188890909 3.0559678975579514 0.0
3.6257746039311964 3.6748444603228840 0.0
2.4431097286280328 4.0337840378871066 0.0
0.8487239774814166 0.8067537703326507 0.0
3.7465939058719036 2.5554077197462290 0.0
1.0885315531043753 0.5753034523613154 0.0
2.9299656852045173 0.2667747367529729 0.0
2.1167922700821422 2.2079642663442907 0.0
3.5899650650797552 2.8381605194830737 0.0
3.0643051267777350 1.0431795233785328 0.0
0.8393310990549970 0.6055277503607710 0.0
4.1355315334299627 2.0205429432417050 0.0
4.0534297342283416 -0.3986047476180091 0.0
3.5706304495533798 1.6070530589480492 0.0
2.2801262918803764 1.5728675745570191 0.0
0.7641786059781265 3.4574472047189420 0.0
0.9933130658903471 0.8560316515699264 0.0
4.2213597630884756 1.9653710964443434 0.0
1.3064575362307647 1.0434075137198746 0.0
1.2195698852763177 0.4733924184666822 0.0
3.1591419624923520 1.8703643214083852 0.0
1.4143582826116736 -0.2938762532725608 0.0
4.2392317392169012 2.4296486419476269 0.0
3.6964555265342640 1.6426099661019595 0.0
3.1491149153635041 2.2153347026046619 0.0
2.8951731083704186 3.0048857439850978 0.0
3.9263140844423292 3.2641971897402944 0.0
0.9857819262797132 0.3052469815517742 0.0
1.7261713884056173 2.4099848293684625 0.0
4.0242378556868790 2.5472090478243388 0.0
3.6898563811275467 -1.3884547033582992 0.0
1.2131524837245680 3.3076046975795879 0.0
1.1770421355845178 0.4783821109898414 0.0
0.9703498152648909 0.3873263640860450 0.0
0.9382690567542304 0.0558076522955200 0.0
4.0914583846280070 2.4595193241117341 0.0
3.8222581720250850 2.8459864789249032 0.0
2.7845692676126492 1.6456421052086010 0.0
1.0310270025499135 1.4855170942832308 0.0
3.9298313550031438 2.6448244883650784 0.0
4.1309660993481039 2.3328429447477328 0.0
4.2813221565296269 2.1676753818648544 0.0
4.0567230603976023 1.8767932491273951 0.0
1.6335688815444016 2.3202251553771243 0.0
3.8037869865668190 -0.1204499388529126 0.0
1.2379745422762864 0.6195799466657697 0.0
3.8749082231595016 1.5078070633130463 0.0
3.9494812629271667 1.3865885912160238 0.0
2.5661918159140318 1.7688674526313590 0.0
3.1024179649876098 1.5104621555048416 0.0
3.0797001822325378 2.1019919939856693 0.0
3.0509559800575579 1.9368295441322056 0.0
3.3566273970036686 1.7410281952023339 0.0
4.0034453965653931 2.2511411429291255 0.0
1.0868306539522357 0.1533880902743786 0.0
2.8668161032097670 2.1228586278147041 0.0
2.4679004309122696 0.8545188903070212 0.0
2.7555216973555714 2.0086169952166366 0.0
2.4901454012604916 -0.0251742125112926 0.0
4.0992483038894889 -0.7018554934500265 0.0
0.9398769914766756 0.9570190867946768 0.0
2.3130192796697449 -1.0761002359458258 0.0
4.0307693398779891 2.5832095052909025 0.0
2.8348910755647974 1.4249926653380027 0.0
3.1087741884709481 1.8232021871495039 0.0
3.4916356245746667 3.9780110904692458 0.0
0.5283710672771837 1.6423797698126048 0.0
3.7360381752262968 2.7399936201603712 0.0
1.5461445502734039 1.8405165445775458 0.0
2.9304419039701304 -0.6839159159678599 0.0
3.7954767200943653 0.8247890881700698 0.0
3.5997851436971233 2.4650945935173163 0.0
0.6418048127020394 0.5094112487798268 0.0
1.2004630799722513 2.2396723519197619 0.0
3.1056687970153134 2.7543536078179298 0.0
1.7180537181569990 2.9227725810092346 0.0
1.0167460288594148 1.8898169992309251 0.0
0.8202380570025434 1.5829968470075861 0.0
1.6637410400947832 3.0813957132591190 0.0
1.4475057059010854 1.1746107398978372 0.0
2.1902764321194916 -1.4149398973963487 0.0
2.1297957072820211 1.5904229415732853 0.0
0.6785649496022476 0.2972579723287675 0.0
0.7662587064822473 0.5813336785155597 0.0
3.9172634668736017 3.4633922142453786 0.0
1.2722960803437526 -0.0761248118196320 0.0
3.3156125176983040 0.8358562332823001 0.0
4.0018365087619916 -0.1214219430976958 0.0
3.8656431978496708 2.3901514978266611 0.0
1.1250736794938627 3.3292141458451256 0.0
2.5884226021364936 0.6958177715296880 0.0
0.6067895803362022 0.3659397833662871 0.0
3.4860008344514464 -0.4421113765452382 0.0
3.6770572842967653 2.6524423280199847 0.0
0.7732399662029740 -0.0123332273106140 0.0
2.6280374424639854 -0.2452927335735333 0.0
2.6892989146906339 1.4439292053976200 0.0
3.6938995113433513 -1.7291751652017191 0.0
0.8280064325067270 0.1076521355135379 0.0
2.4636970620991963 1.5546265030107702 0.0
2.8550977400781750 2.4108320231829574 0.0
2.2240422226090546 1.9547274999682764 0.0
3.8899330305852033 2.5343409670874846 0.0
3.7783155812598692 1.9102212967179353 0.0
2.5344625563185788 1.0982599740815855 0.0
3.7083368704005775 3.7867645679451880 0.0
4.1693217157814155 2.0774462492783550 0.0
0.9439288231253239 0.5977440123407556 0.0
3.1438065369237047 3.2373259296003143 0.0
2.7310174035575967 1.6579166173000832 0.0
4.2060853127852020 2.1661427852125468 0.0
4.1309502733937356 1.9778589605575854 0.0
3.0882911749456339 2.1938428994662238 0.0
3.7223132708097468 2.5701637894487099 0.0
1.2621548100160112 -0.7690746666417330 0.0
3.3528391318452093 0.6509203772873615 0.0
3.9371714308553041 0.1732016249844358 0.0
1.6698321348128715 4.0683854966454396 0.0
2.2586369683167260 1.8738164547927090 0.0
0.7115989347941923 0.6022719858944554 0.0
3.9722942652395039 2.5893811366672295 0.0
4.2668836637758574 2.1052142708305164 0.0
3.9197754279989763 1.1711679752415616 0.0
3.8128659594571803 2.1935868042488664 0.0
3.8187822670418274 2.9086736524384778 0.0
3.4825526573152947 0.1110060333229290 0.0
3.9094356660809342 3.4753143858814459 0.0
3.7721728001629877 2.4566774280680566 0.0
3.6960200191297106 1.9109606376909845 0.0
3.5993998667318881 1.7390961892458121 0.0
2.8342471987489568 1.8033262360151825 0.0
3.4177141030127207 1.3737157405101310 0.0
3.2122028943736156 1.6592635422444708 0.0
3.1496947420572612 2.3356666642916366 0.0
3.2902552155709741 2.4948495187933148 0.0
3.0505163511754096 -0.4770295632499203 0.0
3.6096068257910412 3.8494186378484856 0.0
2.5359618053578230 2.1282102215203635 0.0
2.9041627813617241 1.3952871306824870 0.0
3.8803025964575570 0.5561663584613873 0.0
2.4237033160134618 0.3839631948678192 0.0
3.6101342694322529 1.2130104888809592 0.0
2.7990902366128969 2.6288019135003435 0.0
3.4915975045554224 4.5881116645161057 0.0
3.6350799820973463 2.6398153823603860 0.0
2.2635452274034056 1.3318894238810384 0.0
4.3139226207597066 2.3193875438570042 0.0
3.9858749574090555 2.5715861683809247 0.0
2.8648544363521804 -0.7880419867141982 0.0
4.1016185167256740 1.7734464360397539 0.0
2.5127464430773623 2.0294836508458545 0.0
2.5925534220233875 1.0759924917680332 0.0
3.9178647697224238 2.7090227047117774 0.0
2.7387287511280154 1.3646420024604915 0.0
3.8184616325094329 -0.3781629924509478 0.0
1.9731163541479397 1.4374275265181038 0.0
2.3225911747644021 0.6314133607369656 0.0
2.1480606501126096 0.0579176542485275 0.0
4.1520359988927789 2.4672378274832671 0.0
2.5951603942179693 1.7007218546846381 0.0
2.8158039235910897 2.4500817618843658 0.0
2.9347204760342440 4.7381514970842025 0.0
2.3673626991726202 1.2636614398767947 0.0
2.5254678013848144 2.8804754410875724 0.0
2.2026154464052254 1.6701060188807022 0.0
3.2855545806024096 3.5014923949881487 0.0
1.8494945213927489 1.7731476469426646 0.0
3.9380507402658700 -0.0427343661653132 0.0
3.4835269526631483 2.2633750765406777 0.0
3.8660037100280702 2.5675461282082415 0.0
4.0096469749017336 1.9705310857576124 0.0
4.0048715933030916 2.0562178139318013 0.0
3.6613079772444350 0.4782077316925176 0.0
3.0574365252279243 1.5693645469063338 0.0
1.6457517734626677 1.6768916921229320 0.0
2.2536854739655068 1.0708249329770692 0.0
2.8697423840623504 -1.0428667979486281 0.0
3.7251573576401298 2.5501425933389523 0.0
3.8581943379604207 1.9602984729840649 0.0
1.4836177332950871 0.0884123561697992 0.0
2.0435640963529309 1.0970678786354831 0.0
3.7366843850054221 3.1631068969598499 0.0
1.1572160392379309 0.4553732389342039 0.0
1.8313750349152702 3.2599921635572464 0.0
1.4785732379951582 0.8581246991888567 0.0
3.9421708034126621 1.5458724525605811 0.0
1.8406259651649084 2.2643112932189582 0.0
1.0918389091090390 0.7262528052759916 0.0
2.1238438595959024 2.3887216882737303 0.0
2.7841929673612413 3.3821414421323110 0.0
3.4038394591359675 1.1017262392280038 0.0
3.7290418267756311 0.6678384135313631 0.0
3.5627180476495792 2.2255871837471961 0.0
3.7617760289906141 -1.1047703658073147 0.0
3.2878437389685251 1.7689936282871546 0.0
4.0430497193609787 1.7638718889425242 0.0
1.6604953086577161 -0.3286374270492419 0.0
1.4375921079340110 1.5208425784393862 0.0
3.4396749062621153 2.5833616436001234 0.0
1.3015253076113666 1.8004859450872017 0.0
3.6117883623751528 2.7304045795906364 0.0
3.8796050600060314 1.0756579055718907 0.0
1.4698882052116933 0.7790663321209723 0.0
1.3681705678545470 1.3043858762827010 0.0
3.9059097674084673 -0.8820643922064937 0.0
1.8250288193390531 1.8429974301053949 0.0
1.5100414979888299 0.8446151434250289 0.0
1.3180000014407751 0.1653108059076260 0.0
3.6894032621312456 2.3541000068962323 0.0
3.9141853965839202 0.1925184792851889 0.0
3.1901365270491753 -0.2701137525517832 0.0
1.5934206918299356 3.1018864499526595 0.0
1.1905998733855232 1.0108533396381911 0.0
4.0832892932237073 2.1202217216662040 0.0
1.3381659575044502 0.8107305250941237 0.0
1.5290477683800010 2.7801279350088661 0.0
3.6821262132966588 2.0997022188034964 0.0
1.3559449539146007 -0.2612803224066169 0.0
3.3971265597316282 0.8122131276623592 0.0
3.1579559617003250 2.4900550967031800 0.0
2.6864443480369915 -1.4065238231903654 0.0
4.0662868170161790 2.6009088033410186 0.0
3.4036323056724154 1.9300650731989744 0.0
3.8112172844730057 0.2488955056872911 0.0
2.0000811153961608 3.0560578037127542 0.0
3.6267839348622597 3.6732674778537580 0.0
2.4430158883151960 4.0338111949133024 0.0
0.8646298424834875 0.8195594465342348 0.0
3.7418053221869716 2.5345499952803641 0.0
1.0682841826367067 0.5648426357674230 0.0
2.9359202312786032 0.2754962180452962 0.0
2.1270694087644446 2.2075945316890184 0.0
3.6029100780939989 2.8312006303830684 0.0
3.0525026764769785 1.0477329520083434 0.0
0.8270714884189952 0.5952514228953537 0.0
4.1562468517819822 2.0344585684335681 0.0
4.0517716727197133 -0.3965899595449083 0.0
3.5991500644960657 1.6242176813084914 0.0
2.2668050838878591 1.5735025172090698 0.0
0.7641786059781265 3.4574472047189433 0.0
0.9853862375566536 0.8466774477460973 0.0
4.2138399834506597 1.9770740428629547 0.0
1.3048257584678511 1.0398334215443659 0.0
1.2432249802073572 0.4838144809836009 0.0
3.1249606853022875 1.8504892966284474 0.0
1.4141717750562619 -0.2939098371295709 0.0
4.2366177262110218 2.4302307028422034 0.0
3.6714952039508422 1.6511769772836398 0.0
3.1822203395228903 2.2308885384422892 0.0
2.8943356742424076 2.9979133417227519 0.0
3.9322691652437221 3.2604325862767789 0.0
1.0010452047968008 0.3105564162241304 0.0
1.7261966696122670 2.4101775430498251 0.0
4.0289072865516937 2.5395946826769333 0.0
3.6899495159860121 -1.3886825204245867 0.0
1.2131528802518465 3.3076046981062897 0.0
1.1975230388224243 0.4873298382404433 0.0
0.9504934495035059 0.3785754365715355 0.0
0.9470885414685724 0.0584386525253950 0.0
4.0863568107201438 2.4522326393189471 0.0
3.8313972623067212 2.8293535220897619 0.0
2.7525078773016531 1.6243372741464064 0.0
1.0310236879277710 1.4844645301759041 0.0
3.9433347283786828 2.6322368051703684 0.0
4.1498878117529525 2.3455051152362212 0.0
4.2845204265073713 2.1738701791871082 0.0
4.0365829158425663 1.8891495975201635 0.0
1.6335588042334257 2.3202471402910674 0.0
3.8022404254082489 -0.1143862507422494 0.0
1.2200148342239763 0.6127744300098845 0.0
3.8867304439865622 1.5252490885523813 0.0
3.9501182219496700 1.4059314345239040 0.0
2.5533218617891440 1.7515889436319536 0.0
3.0677761521814046 1.5020002481264005 0.0
3.0593888022582734 2.0783594484251418 0.0
3.0870993950439907 1.9580954597962554 0.0
3.3903074209188522 1.7581194365643718 0.0
3.9784456503848551 2.2423780224073506 0.0
1.0903327503952596 0.1552236231188464 0.0
2.8975501157471282 2.1245152237539329 0.0
2.4938443513261292 0.8678757536009744 0.0
2.7296335420424596 1.9860481702117434 0.0
2.4944185210749894 -0.0191341176267953 0.0
4.0989864841984742 -0.7011613235589450 0.0
0.9400477326989812 0.9569471210049313 0.0
2.3130192714575890 -1.0760971669510888 0.0