# vtk DataFile Version 3.0
LucasCarvalhoTCC Results
ASCII

DATASET POLYDATA
FIELD FieldData 1
TIME 1 1 double
6.4

POINTS 531 float
0.02430399999999999 0.16425 0.0
0.5913384 0.481878 0.0
1.30475 0.591832 0.0
0.774126 0.951272 0.0
0.04779564148251592 0.1966194329439859 0.0
0.0726092153537953 0.2279866320496896 0.0
0.09876577335895967 0.2582426022760065 0.0
0.1262817198684718 0.2872673048853742 0.0
0.1551671626852806 0.3149288071400502 0.0
0.1854238368919928 0.3410826624766006 0.0
0.2170424591499632 0.3655716640299072 0.0
0.2499995164635996 0.3882263409476824 0.0
0.2842534387828506 0.4088665906889567 0.0
0.3197403359862048 0.4273050841371062 0.0
0.3563695945475563 0.4433531534921038 0.0
0.3940201673622058 0.4568300511916809 0.0
0.4325386107291805 0.4675762214989666 0.0
0.4717406913237268 0.4754709112408955 0.0
0.5114182513144845 0.480453442081874 0.0
0.5513531678859215 0.4825464217651069 0.0
0.6182637923774223 0.5096055604109244 0.0
0.647389101376845 0.5350126187545199 0.0
0.6784752958296183 0.5579802184492302 0.0
0.7112421079139344 0.5784810076698811 0.0
0.7454110434104482 0.5965507527581431 0.0
0.7807301979183381 0.6122562812860965 0.0
0.8169827939052532 0.6256694297140926 0.0
0.853985522124928 0.6368498290413532 0.0
0.8915818964261243 0.6458353363890481 0.0
0.9296339776508085 0.6526379336565091 0.0
0.9680139759519513 0.6572432424840469 0.0
1.006596418266983 0.659612648128084 0.0
1.045251165872634 0.6596877658251245 0.0
1.083837680945672 0.657397570658483 0.0
1.122201320191055 0.6526688455666412 0.0
1.160173053543044 0.6454405726452737 0.0
1.197574286953346 0.6356824063786186 0.0
1.23422961949795 0.6234159704281613 0.0
1.26998758503999 0.6087366500005643 0.0
1.285086682927543 0.6256533177085738 0.0
1.263669745906668 0.6583917156018083 0.0
1.240480125919214 0.6898988493917133 0.0
1.215532715641304 0.7200329197235763 0.0
1.188869833862339 0.7486599839005789 0.0
1.160556835593143 0.7756559317113654 0.0
1.130680194163798 0.8009104211039757 0.0
1.099347083827048 0.8243335727704395 0.0
1.066684425336412 0.8458643604021228 0.0
1.03283497048792 0.8654772531176074 0.0
0.9979492572630678 0.8831824104874066 0.0
0.9621749986495024 0.8990166556695112 0.0
0.9256475378616493 0.9130272060048579 0.0
0.8884846540507749 0.9252538945090274 0.0
0.8507866567183312 0.935715378288671 0.0
0.8126405010322847 0.9444016349017643 0.0
0.7365055179612304 0.9396161853607135 0.0
0.699310855231089 0.9266666891603924 0.0
0.6626179171945521 0.9123577070090924 0.0
0.6264901449910028 0.8966765244755546 0.0
0.5909789825447118 0.8796450886595113 0.0
0.556124897941028 0.8613059841617771 0.0
0.5219601957009091 0.8417124664434518 0.0
0.4885110616878257 0.8209207172498462 0.0
0.4558007060429968 0.7989848675704875 0.0
0.4238520247653796 0.775953675763176 0.0
0.3926900138417566 0.7518687036338616 0.0
0.3623437622133722 0.7267636709390595 0.0
0.3328479550295906 0.7006647540504483 0.0
0.3042438201183181 0.6735915983461908 0.0
0.2765795358619001 0.6455588748284606 0.0
0.2499101143933102 0.6165781952942546 0.0
0.2242967982692083 0.5866601984136335 0.0
0.1998060807431611 0.5558166834807132 0.0
0.1765083808984156 0.5240625786010467 0.0
0.154476512720734 0.491417660368959 0.0
0.133784033184808 0.457907916333494 0.0
0.114503564227142 0.4235664945146766 0.0
0.09670517293008124 0.3884342245925089 0.0
0.0804548910754031 0.3525597611689231 0.0
0.06581337946329963 0.3159993090744527 0.0
0.05283482490365372 0.2788161107032479 0.0
0.0415660226296666 0.2410796291505872 0.0
0.03204569406625649 0.2028646095712164 0.0
0.5272009874003867 0.6419624505772817 0.0
0.7421848286576707 0.7716726266421574 0.0
0.8789503364783713 0.7829234141383637 0.0
0.6149390992905563 0.7449438030688011 0.0
0.4064556042659638 0.5942834991165423 0.0
0.9875021850865396 0.7666507358101158 0.0
0.3188065960661005 0.539594034984892 0.0
0.61365100263957 0.6399487878797632 0.0
0.8049090660915541 0.8464379870891131 0.0
0.7099820328572021 0.6828840522539854 0.0
0.5239467234991928 0.7406922291088611 0.0
0.8154056325591208 0.7211774015928547 0.0
0.6676178829014909 0.8152713180209475 0.0
0.4416080359619968 0.674360953773491 0.0
0.489443615375965 0.5654986742123573 0.0
1.076665773779852 0.7387182918829318 0.0
0.250390543112057 0.4877450112830265 0.0
0.5736819937919005 0.5790366884881447 0.0
0.7263706755366466 0.8615301097563091 0.0
0.940143307772686 0.8233944909985552 0.0
0.927065543677544 0.7236459161626674 0.0
0.8744389806957806 0.8609114380468947 0.0
0.336888362650554 0.6081958070931937 0.0
0.2030757334857187 0.4383942902513459 0.0
0.3861483329720647 0.5255533415902591 0.0
0.5621001921466506 0.7923778419149285 0.0
0.6822897332295245 0.7428043323059399 0.0
0.5764061681675353 0.6881266532454204 0.0
1.129195449682892 0.7163224153578123 0.0
0.8157794419559141 0.7831214907157077 0.0
0.3806644703311284 0.6554275822782399 0.0
0.7695737871052837 0.669593045341503 0.0
0.4699375460410929 0.6217118815516158 0.0
0.6830867370872363 0.630350317562806 0.0
1.040416897214502 0.7929392348941093 0.0
0.4604428393605979 0.7321209818568342 0.0
0.8729552856459739 0.7015083313474691 0.0
1.017010765275644 0.7166925631396708 0.0
0.6458785458483771 0.6946878992565794 0.0
0.7733575582969163 0.8941098392103913 0.0
0.4457537579383052 0.5273353624588528 0.0
0.163830623786951 0.3903175742448083 0.0
0.6095823984734953 0.8256600013628639 0.0
0.2618074352614998 0.5435604438425528 0.0
0.6287880420949764 0.5875838132975476 0.0
0.3100402147222924 0.4835410260423071 0.0
0.5422177893302824 0.5343158927797464 0.0
0.9964262112680041 0.8213447667248638 0.0
0.4971609598823845 0.6906859160718212 0.0
0.5740517260168769 0.633982031239429 0.0
0.7423299505107201 0.7218768583704394 0.0
0.767147744476665 0.819658485932403 0.0
0.9427329070375209 0.7774595780066723 0.0
0.8375285793481674 0.8869398470561132 0.0
0.2879426409425497 0.5872676364411625 0.0
0.6797562629663748 0.8647676397847667 0.0
1.171674168522591 0.6949964056806914 0.0
0.5261010885606964 0.6055079299963303 0.0
0.7081534744446967 0.8078672678314597 0.0
0.9681672688626206 0.705385299758921 0.0
0.7364069054947873 0.6432919177737106 0.0
0.363826821075015 0.5678764295233764 0.0
0.826170216989844 0.6605791783255148 0.0
0.1284439337099834 0.3602715082199688 0.0
0.518140828090112 0.783905985497134 0.0
0.8452908336054504 0.8167586152211004 0.0
0.2015204468558833 0.492088055688788 0.0
0.4005883523205732 0.7121294304856254 0.0
0.3551392316798573 0.4864133323669936 0.0
0.2501727034998737 0.4443035857235296 0.0
0.857938396055507 0.7390317828783199 0.0
0.9245301815433076 0.8668102132501951 0.0
0.5702050292970205 0.7323438487067678 0.0
1.111607633075016 0.759318252473435 0.0
0.6317193755596126 0.7853891653733797 0.0
0.7921381265818805 0.7497379312370454 0.0
1.088942426366261 0.7015435214091311 0.0
0.5818207607488639 0.5352340257544296 0.0
0.4203532416309484 0.6369649631143086 0.0
0.4854818714173937 0.5131439318707094 0.0
0.4475429831528036 0.5690430472086269 0.0
0.8968753306595262 0.8225547516037004 0.0
0.6339557898063448 0.8543470494763272 0.0
0.3416564411796998 0.6516449771136894 0.0
1.082970576264455 0.7856036465430698 0.0
0.2255204648032354 0.5229464838393291 0.0
0.7335043541589261 0.9012744999286941 0.0
0.9097052989734319 0.6921177492721042 0.0
0.5363428275528405 0.6992389299864537 0.0
0.9657777897300287 0.8588269742066746 0.0
1.025947476617909 0.7556651119714124 0.0
0.1090829970454354 0.3226173037985549 0.0
0.4836644525169279 0.7663103281018557 0.0
0.6910856326166581 0.777867529208468 0.0
0.6694391877434097 0.5946719355048008 0.0
0.2954883530575775 0.4501042133334518 0.0
0.6746032498128595 0.6643957640016517 0.0
1.054636636429828 0.6974583960183274 0.0
0.8939255235163368 0.7470597914537064 0.0
0.3749741568555516 0.6190655430398917 0.0
1.204101441114554 0.6801433534918062 0.0
0.6130053345415899 0.6785345531932346 0.0
0.7679719108452487 0.8562682874000032 0.0
0.9710820219997449 0.8008372590855476 0.0
0.1608022352294362 0.4242591696906621 0.0
0.2865399820604418 0.5141369963640697 0.0
0.1962258775846918 0.4008383427744516 0.0
0.6210920174972845 0.5516143721732873 0.0
0.4843009180093644 0.6583977883024127 0.0
0.5695029195102991 0.8267073580550881 0.0
0.9562891163300477 0.7436031251145003 0.0
0.4174190173896447 0.5044019081507806 0.0
0.410860431802698 0.5535781448116232 0.0
0.8709320861791604 0.9002602580953145 0.0
0.427354757192076 0.7399041791280969 0.0
0.7107884943357746 0.7172753954970394 0.0
1.030382288537246 0.8267335242583146 0.0
0.7737440530215844 0.7115751739064536 0.0
0.8042035044852396 0.9123190309183211 0.0
0.0480920891272324 0.2181807374272496 0.0
0.3695079235280397 0.6886893012630373 0.0
0.773516204411121 0.7830673827025234 0.0
0.302776671534508 0.6210168062901616 0.0
0.7150573728414059 0.6149413270404035 0.0
0.5863276441271683 0.769748656022605 0.0
1.143752049005473 0.6780480059671409 0.0
0.6477132714923303 0.7318578097016951 0.0
0.8380052680878572 0.8531154611905379 0.0
0.5966224054445893 0.6051703156405629 0.0
0.3207240819522855 0.5772784374275386 0.0
0.3520131451607586 0.5263918604440553 0.0
0.8573528491808811 0.6709738722470224 0.0
0.1797236573643203 0.460867988842514 0.0
0.5540828191547277 0.6661566975721369 0.0
1.158039843450239 0.7357536542887966 0.0
0.08638006908591334 0.286237566592474 0.0
0.790861820497242 0.6466611559014377 0.0
0.5362079962218838 0.8121454698907893 0.0
0.9405172130232713 0.6862060282668497 0.0
0.6039359324506977 0.711463595189489 0.0
0.4440093493753478 0.6096873538428137 0.0
0.5500746279087338 0.7620941994763282 0.0
0.2578504496023611 0.5739900063885278 0.0
0.502526452350101 0.6209820553182169 0.0
0.6799833858912959 0.7033681517905728 0.0
0.7183487148906835 0.7518430858176317 0.0
0.8006701240044786 0.8118713608014352 0.0
0.1304684854221093 0.3934039266496895 0.0
1.00789495394612 0.7937868725857601 0.0
0.696960396255943 0.893370944718147 0.0
0.8258315165019564 0.7538365084989149 0.0
0.8462950259502577 0.775614153529746 0.0
0.4082018839227037 0.6749460331934272 0.0
0.7025889307788081 0.8378536687159448 0.0
0.4666676520109517 0.6984557076050861 0.0
[...]
POINT_DATA 531

VECTORS Velocity float
0.0000000000000000 1.0000000000000000 0.0
0.0000000000000000 1.0000000000000000 0.0
2.6381938810700736 -0.9593274411457643 0.0
1.7886676110721507 1.0223414228613785 0.0
0.0000000000000000 1.0000000000000000 0.0
0.0000000000000000 1.0000000000000000 0.0
0.0000000000000000 1.0000000000000000 0.0
0.0000000000000000 1.0000000000000000 0.0
0.0000000000000000 1.0000000000000000 0.0
0.0000000000000000 1.0000000000000000 0.0
0.0000000000000000 1.0000000000000000 0.0
0.0000000000000000 1.0000000000000000 0.0
0.0000000000000000 1.0000000000000000 0.0
0.0000000000000000 1.0000000000000000 0.0
0.0000000000000000 1.0000000000000000 0.0
0.0000000000000000 1.0000000000000000 0.0
0.0000000000000000 1.0000000000000000 0.0
0.0000000000000000 1.0000000000000000 0.0
0.0000000000000000 1.0000000000000000 0.0
0.0000000000000000 1.0000000000000000 0.0
0.0000000000000000 0.0000000000000000 0.0
0.0000000000000000 0.0000000000000000 0.0
0.0000000000000000 0.0000000000000000 0.0
0.0000000000000000 0.0000000000000000 0.0
0.0000000000000000 0.0000000000000000 0.0
0.0000000000000000 0.0000000000000000 0.0
0.0000000000000000 0.0000000000000000 0.0
0.0000000000000000 0.0000000000000000 0.0
0.0000000000000000 0.0000000000000000 0.0
0.0000000000000000 0.0000000000000000 0.0
0.0000000000000000 0.0000000000000000 0.0
0.0000000000000000 0.0000000000000000 0.0
0.0000000000000000 0.0000000000000000 0.0
0.0000000000000000 0.0000000000000000 0.0
0.0000000000000000 0.0000000000000000 0.0
0.0000000000000000 0.0000000000000000 0.0
0.0000000000000000 0.0000000000000000 0.0
0.0000000000000000 0.0000000000000000 0.0
0.0000000000000000 0.0000000000000000 0.0
2.6783023680382732 -1.7943068368857604 0.0
3.6706746952302169 -2.3036197240241427 0.0
3.7614724545502525 -2.2270858376672487 0.0
3.7624738931312516 -1.9756399794547876 0.0
3.8561643839477702 -1.7638176075733338 0.0
3.9655926184289472 -1.4682779005336464 0.0
4.0319505155073703 -1.3212008860153353 0.0
4.1700896523682172 -1.1021299649890237 0.0
4.1732166477354937 -0.8166553830562462 0.0
4.1663601821437153 -0.5553961914292597 0.0
4.0406355678121999 -0.2610866855325232 0.0
3.8211499453394540 0.0399486754366473 0.0
3.6273055735865576 0.2742729556757666 0.0
3.2553893914035386 0.5289321014638360 0.0
2.6170704914680307 1.0873390281622271 0.0
1.7613952566779840 0.9351914633833017 0.0
0.0000000000000000 0.0000000000000000 0.0
0.0000000000000000 0.0000000000000000 0.0
0.0000000000000000 0.0000000000000000 0.0
0.0000000000000000 0.0000000000000000 0.0
0.0000000000000000 0.0000000000000000 0.0
0.0000000000000000 0.0000000000000000 0.0
0.0000000000000000 0.0000000000000000 0.0
0.0000000000000000 0.0000000000000000 0.0
0.0000000000000000 0.0000000000000000 0.0
0.0000000000000000 0.0000000000000000 0.0
0.0000000000000000 0.0000000000000000 0.0
0.0000000000000000 0.0000000000000000 0.0
0.0000000000000000 0.0000000000000000 0.0
0.0000000000000000 0.0000000000000000 0.0
0.0000000000000000 0.0000000000000000 0.0
0.0000000000000000 0.0000000000000000 0.0
0.0000000000000000 0.0000000000000000 0.0
0.0000000000000000 0.0000000000000000 0.0
0.0000000000000000 0.0000000000000000 0.0
0.0000000000000000 0.0000000000000000 0.0
0.0000000000000000 0.0000000000000000 0.0
0.0000000000000000 0.0000000000000000 0.0
0.0000000000000000 0.0000000000000000 0.0
0.0000000000000000 0.0000000000000000 0.0
0.0000000000000000 0.0000000000000000 0.0
0.0000000000000000 0.0000000000000000 0.0
0.0000000000000000 0.0000000000000000 0.0
0.0000000000000000 0.0000000000000000 0.0
4.0046188134887135 2.6027786221280160 0.0
4.2968665522651630 2.1718403709206688 0.0
3.9054746416849659 1.1901454366374769 0.0
3.8321686400343813 2.2051533999147082 0.0
3.8207479298084475 2.9200882244554980 0.0
3.4206919246418375 0.0676030040904643 0.0
3.9088203462927376 3.4761670695298044 0.0
3.7853412301281613 2.4469523549138774 0.0
3.7610909152500014 1.9750178767655757 0.0
3.5790962860347766 1.7441953357659741 0.0
2.8357088406130120 1.7935319959948148 0.0
3.3393690007908297 1.3860628479736328 0.0
3.2120591555093152 1.6704085263392905 0.0
3.1604761912266066 2.3424890890438421 0.0
3.2692996681687956 2.5126544992117918 0.0
3.0162160777634313 -0.5039208920151093 0.0
3.6099400980321064 3.8487439984186405 0.0
2.5036714565292364 2.1146016730353017 0.0
2.9095008110291296 1.4107384434092587 0.0
3.9363222336993555 0.5367356657209887 0.0
2.3065470711355687 0.3636221426834333 0.0
3.7004278079052138 1.2361323681778171 0.0
2.7985662515820917 2.6300847277167154 0.0
3.4916630244588589 4.5880246975217878 0.0
3.6325279178457821 2.6433493718016723 0.0
2.2484683220115103 1.3218250450901141 0.0
4.3402734423499112 2.3600730193105299 0.0
4.0251006533203704 2.5815648080625944 0.0
2.8496021099339957 -0.7942921541917107 0.0
4.1188506009032535 1.8283068053971852 0.0
2.5152451524538471 2.0318662488612280 0.0
2.5347833692634563 1.0714833596300615 0.0
3.9358569166662543 2.7325083687547176 0.0
2.7128356787972305 1.3458095292491425 0.0
3.8244019277760462 -0.4400084757962124 0.0
1.9700607740898257 1.4327687122181758 0.0
2.2122432346902463 0.6110325127161425 0.0
2.0752454312975952 0.0367413446306617 0.0
4.1783067960744109 2.4819196855109054 0.0
2.6139830077882831 1.7185657187643946 0.0
2.8022636986331215 2.4560656477899556 0.0
2.9347195592749560 4.7381453815832320 0.0
2.3541563860849055 1.2566025052261964 0.0
2.5249030608318797 2.8795567461312284 0.0
2.1713930533908270 1.6406150023345740 0.0
3.2865607961364662 3.5018318093380585 0.0
1.8114477342524444 1.7688294052862958 0.0
3.9969733398389602 -0.1039610403500980 0.0
3.5043656902351787 2.2646316585611919 0.0
3.8904891002807909 2.5711776908467536 0.0
3.9934774798562178 2.0142012434318661 0.0
4.0582029625468836 2.1234131622156287 0.0
3.6213199858152918 0.4500195214469752 0.0
3.1298195573297818 1.6016265332302291 0.0
1.6449973821221149 1.6765962455043828 0.0
2.2422524971797428 1.0695650931651737 0.0
2.8647892862932887 -1.0489584450813565 0.0
3.7312746876759522 2.5620180544466145 0.0
3.8838857572942773 1.9963318553231248 0.0
1.4025041768683659 0.0717525485159602 0.0
2.0100320168986179 1.0952881949548885 0.0
3.7357121395476418 3.1675423112559278 0.0
1.1038480724253763 0.4420318865301824 0.0
1.8313766228488073 3.2599907402079191 0.0
1.4719492245611407 0.8512866031430449 0.0
3.9984644204299382 1.5914480546322356 0.0
1.8405750237642160 2.2639967656116302 0.0
1.0925740397147765 0.7258666401036162 0.0
2.1237192394868085 2.3895050931963633 0.0
2.7846348058883055 3.3820407454936805 0.0
3.3157655495164233 1.1011693418912032 0.0
3.8439573028767660 0.6502686501546330 0.0
3.5805522915761290 2.2253817870629766 0.0
3.7617908734082972 -1.1308958809743652 0.0
3.2863482140170541 1.7726464961862738 0.0
4.0221835904030083 1.8115638058833607 0.0
1.6372594002098579 -0.3347556845786391 0.0
1.4062387003704457 1.5076513501901212 0.0
3.4476863532637636 2.5918722475304761 0.0
1.2838843759453251 1.8025055654180884 0.0
3.6038939801553482 2.7487280038242243 0.0
3.9421005843758010 1.0914426111353295 0.0
1.4620353337712662 0.7751144172508400 0.0
1.3690858998707869 1.3055422438542041 0.0
3.9170802300016083 -0.9383334295990978 0.0
1.8248519064586584 1.8424524266853797 0.0
1.5118106858936651 0.8499324094739441 0.0
1.2368862771503490 0.1574403260767114 0.0
3.7168440037134785 2.3558246377392025 0.0
4.0394882201849063 0.1442108364255312 0.0
3.1324752137096974 -0.3192765353829802 0.0
1.5934210000939677 3.1018864567901221 0.0
1.1878592168471980 1.0064177577977933 0.0
4.1085877454002251 2.1601323498634151 0.0
1.3155807806839817 0.7941455459946148 0.0
1.5297515014888412 2.7802318105883641 0.0
3.6772935870556251 2.0990962954092787 0.0
1.3225001043918554 -0.2700224133954047 0.0
3.3070779498798002 0.8007020574289657 0.0
3.1583746925825387 2.4945002831344660 0.0
2.6857605543912784 -1.4078319069077401 0.0
4.1000889774924421 2.6139596701729073 0.0
3.4404080436354811 1.9749897010288986 0.0
3.8155891468192102 0.2100867271043078 0.0
2.0000860286867912 3.0560356357562597 0.0
3.6270945192884909 3.6728597264016538 0.0
2.4430323687700324 4.0338070142863680 0.0
0.8442110140009380 0.7999503799720682 0.0
3.7673245461195481 2.5483468706947967 0.0
1.0608283706181474 0.5608154877129095 0.0
2.8332832830460184 0.2458030042292997 0.0
2.1217077657008030 2.2105061400536767 0.0
3.5970569007276070 2.8411130594618115 0.0
3.1372494779471065 1.0502037647691214 0.0
0.8266421954173730 0.5934974403469316 0.0
4.1559887647429763 2.0656053640943131 0.0
4.1295786523677460 -0.4688247082611546 0.0
3.5493265699549679 1.6482312236262577 0.0
2.2973364264407832 1.5855086148414852 0.0
0.7641786051141771 3.4574472034487682 0.0
0.9864228277882017 0.8474506429743708 0.0
4.2483977907138302 2.0453352614276583 0.0
1.3046368401417194 1.0401588641293069 0.0
1.2218301156323412 0.4759085255943495 0.0
3.1211191138529291 1.8468535375712232 0.0
1.4055933726654397 -0.2954911513011227 0.0
4.2683448351270270 2.4553112642969954 0.0
3.7502904931576815 1.6954425998321947 0.0
3.1684929760467275 2.2117859131414690 0.0
2.8935557412501258 2.9987052401981225 0.0
3.9319824651217572 3.2624387032242010 0.0
0.9431970353932428 0.2981332514115150 0.0
1.7262046191949236 2.4100801553163405 0.0
4.0713259823688084 2.5468396671018811 0.0
3.6905149315393970 -1.4052046792488653 0.0
1.2131528886538940 3.3076046008557380 0.0
1.1550735072768510 0.4744279518259645 0.0
0.9448807081076576 0.3768681030076163 0.0
0.8850456508546398 0.0531903771988165 0.0
4.1223155620268583 2.4671207776163406 0.0
3.8374588086283956 2.8500355208127455 0.0
2.7471038587496341 1.6144609631711164 0.0
1.0306178938112565 1.4839658168826091 0.0
3.9648394727786562 2.6532701681316420 0.0
4.1641351637155175 2.3692732723118937 0.0
4.3041228845594635 2.2290756566079892 0.0
4.0921370314416414 1.9595810634294539 0.0
1.6335550981451223 2.3202438177165989 0.0
3.8007923844499438 -0.1791134826990458 0.0
1.2170466832371103 0.6139917764408238 0.0
3.8494940928771917 1.5536984653044386 0.0
3.9387348707929544 1.4346716663017933 0.0
2.5576811703654165 1.7511560541206104 0.0
3.0740512151543169 1.5211961786372405 0.0
3.0724148028446940 2.0793236278142651 0.0
3.0676321020372534 1.9383168110050033 0.0
3.3504083267395375 1.7793345613525091 0.0
3.9980870524553644 2.2699793908748500 0.0
1.0362053089387977 0.1418840387622915 0.0
2.8667001790563118 2.1274964361054320 0.0
2.3898847523220135 0.8507140941033148 0.0
2.7337417007933769 1.9829074577440013 0.0
2.4006496697186952 -0.0489740447070644 0.0
4.1535222936487193 -0.7751542063987277 0.0
0.9397400289783182 0.9564364722736916 0.0
2.3130158424174319 -1.0760540347694767 0.0
4.0857567321216504 2.5931967242884482 0.0
2.8418652847652894 1.4321150240073628 0.0
3.1340451875280473 1.8730659383831154 0.0
3.4918047678510344 3.9779119809432242 0.0
0.5214760857841544 1.6424388555775518 0.0
3.7516969934148006 2.7548909830680137 0.0
1.5509078286249387 1.8409307963813906 0.0
2.9095504209443912 -0.7040271762949551 0.0
3.7733616230502816 0.8301460646621140 0.0
3.6292538416485187 2.4725392185112245 0.0
0.6297884888513084 0.4972678108971737 0.0
1.2013158928596754 2.2394742209475833 0.0
3.1057078053207592 2.7507024281496451 0.0
1.7179698937076908 2.9227275320473427 0.0
1.0191299313898017 1.8919892270888909 0.0
0.8131011025062318 1.5836748744407909 0.0
1.6637031507792739 3.0813959330493987 0.0
1.4425895672436648 1.1825351258975421 0.0
2.1903447980445132 -1.4148519087697307 0.0
2.1125688331370567 1.5673559320179202 0.0
0.6603444996886674 0.2920881055380207 0.0
0.7634833018017121 0.5772864237812125 0.0
3.9213896862777622 3.4616546558019250 0.0
1.2605170130627150 -0.0786322130406337 0.0
3.4118491428856634 0.8339184277280938 0.0
4.1164489280516481 -0.1875821671062914 0.0
3.9066222864867335 2.4046112476137775 0.0
1.1250736317239480 3.3292141691428165 0.0
2.4839125661382608 0.6908582912168715 0.0
0.5903050939802028 0.3549621653466534 0.0
3.4553790267461069 -0.4953762923629183 0.0
3.6899524706559990 2.6443321975729939 0.0
0.7387835905531507 -0.0165098132040857 0.0
2.5714601659225926 -0.2754609945906746 0.0
2.6397883138440101 1.4194941379557278 0.0
3.6934417605796526 -1.7364116255181368 0.0
0.7861580624196366 0.1051359416944633 0.0
2.4117776289475623 1.5299567113284569 0.0
2.8546351265329033 2.4216223284800220 0.0
2.2147999583090225 1.9612631937519718 0.0
3.9209940202256650 2.5281398467195824 0.0
3.7754905031669650 1.9488782241382567 0.0
2.4859539700376940 1.1055351662588744 0.0
3.7093750829490815 3.7864084687102215 0.0
4.1911681445072224 2.1422125700761878 0.0
0.9328346121699700 0.5969797269403057 0.0
3.1439205887292885 3.2360283223231239 0.0
2.7156900533058574 1.6765495818997882 0.0
4.2231561072603405 2.2229239673881902 0.0
4.1396706417308913 2.0482378537769210 0.0
3.1077944992013680 2.1899847942652300 0.0
3.7432138203718517 2.5826018483853157 0.0
1.2604376465286862 -0.7699044325103103 0.0
3.2677336659506122 0.6440140966026507 0.0
4.0093974747768213 0.1297251049866477 0.0
1.6698192780751646 4.0683864166230119 0.0
2.2527347823813479 1.8643009910841193 0.0
0.7054790714750629 0.6015024125730791 0.0
4.0115067061367471 2.5975374015951069 0.0
4.2938319000077598 2.1765752060496042 0.0
3.9056221079194549 1.1974892166866931 0.0
3.8207183480327429 2.1983975264243414 0.0
3.8235674481582338 2.9146826429036450 0.0
3.4209053213619200 0.0703750863777202 0.0
3.9096370984024578 3.4745025386553881 0.0
3.7994940309324798 2.4541687331747495 0.0
3.7492406545522652 1.9802881806570509 0.0
3.5942846941285196 1.7538753562769942 0.0
2.8225141243986802 1.7820142154020913 0.0
3.3501649120929442 1.3946762903690106 0.0
3.1952999129364059 1.6641341065352055 0.0
3.1551679754155448 2.3311930582437519 0.0
3.2803625809108539 2.5100193955057177 0.0
3.0162071169164077 -0.5039535053843198 0.0
3.6098473721282520 3.8489547210697310 0.0
2.5176513213228668 2.1185019828993723 0.0
2.8948105435149598 1.4080180541849481 0.0
3.9337446458162164 0.5408214099898980 0.0
2.3104193973800671 0.3668809830642220 0.0
3.6931828556067234 1.2399055358988398 0.0
2.7982845039397675 2.6268662989847087 0.0
3.4915999876838644 4.5880905377660843 0.0
3.6352623440020220 2.6419545860457196 0.0
2.2331243988020146 1.3128381377293281 0.0
4.3399580186150226 2.3620806645321997 0.0
4.0239359710943088 2.5769207783135619 0.0
2.8495688406344297 -0.7943645114011590 0.0
4.1174599341251854 1.8372608361439384 0.0
2.5122680133404964 2.0257080858138723 0.0
2.5491164712319825 1.0787486156960175 0.0
3.9410418553092650 2.7244088502756880 0.0
2.7298442192878118 1.3546376446307813 0.0
3.8244666611969760 -0.4395197331987032 0.0
1.9600150600045301 1.4236519457711090 0.0
2.2203887949763343 0.6147543930676395 0.0
2.0755205675987565 0.0374692847247340 0.0
4.1854467801227884 2.4864510025468793 0.0
2.6030768450029482 1.7182848128450501 0.0
2.8087201974810951 2.4553112766503067 0.0
2.9347128981316430 4.7381534560315393 0.0
2.3388071087341635 1.2486682512812290 0.0
2.5252025239505147 2.8796706891887300 0.0
2.1856475521679264 1.6498820748237006 0.0
3.2865068305971734 3.5015159133557261 0.0
1.8223439137406829 1.7700955141306873 0.0
3.9960241822888358 -0.1023825555059376 0.0
3.4964124549163142 2.2526862567735484 0.0
3.9024875892696569 2.5718617398173733 0.0
4.0037868764465445 2.0221097397907215 0.0
4.0464716893357267 2.1267045197164594 0.0
3.6210332001067176 0.4543700160730363 0.0
3.1228888659664200 1.6035598395145547 0.0
1.6451047445312759 1.6761095665515719 0.0
2.2277362871863797 1.0643758664474801 0.0
2.8647774285627627 -1.0490022118181810 0.0
3.7426461251719427 2.5602631763548231 0.0
3.8692499156820306 1.9932345863992429 0.0
1.4042766976416687 0.0734592827560638 0.0
2.0236475218885768 1.1025979146201763 0.0
3.7373129596260952 3.1642418949373647 0.0
1.1115581950761095 0.4454881545056137 0.0
1.8313758494800678 3.2599922273356281 0.0
1.4610957659322004 0.8441395329589010 0.0
3.9922550070284730 1.5985197041003565 0.0
1.8406135258417951 2.2641929554607931 0.0
1.0881836820942257 0.7215719778526021 0.0
2.1246102791604904 2.3889447071703955 0.0
2.7843883374567682 3.3820594074292876 0.0
3.3221728836197251 1.1086900439372529 0.0
3.8404329446839873 0.6527960705929943 0.0
3.5695986655559691 2.2155568921928044 0.0
3.7618646148725685 -1.1310365490473107 0.0
3.2698927228263015 1.7648619743479599 0.0
4.0279860420067291 1.8202991866952190 0.0
1.6371028465367179 -0.3348293020044508 0.0
1.4155183288654047 1.5111813748733709 0.0
3.4468350450943293 2.5838823666917405 0.0
1.2897092505358116 1.8026607739263496 0.0
3.6107363306019034 2.7445448826752767 0.0
3.9379165439666064 1.0975757693249417 0.0
1.4504908252512454 0.7695340124203762 0.0
1.3676021036853574 1.3026871007355278 0.0
3.9172449600163906 -0.9384066487450075 0.0
1.8249904035704236 1.8427042885728766 0.0
1.5036872525894451 0.8485975283718944 0.0
1.2408084455390163 0.1595725898904538 0.0
3.7089241448921624 2.3462271438922069 0.0
4.0378562914577047 0.1455715081438448 0.0
3.1326557672978979 -0.3181386444067944 0.0
1.5934213299407685 3.1018860759085323 0.0
1.1788061626031729 0.9981760825171059 0.0
4.0976517893279514 2.1582007155742415 0.0
1.3270796746623292 0.8007646623073624 0.0
1.5294609937097394 2.7801452290852389 0.0
3.6930376568224781 2.1080463674220455 0.0
1.3223494271090217 -0.2699144006186606 0.0
3.3099637603535688 0.8069737064451107 0.0
3.1582730938938086 2.4885649241755359 0.0
2.6857605630932948 -1.4078322906623060 0.0
4.1070176616163323 2.6165095036114563 0.0
3.4262543950308171 1.9755910152752674 0.0
3.8146283652750510 0.2129249845772220 0.0
2.0000742061982919 3.0560668379823936 0.0
3.6272514005830883 3.6725571417082929 0.0
2.4429994064709621 4.0338200145284961 0.0
0.8516101575149576 0.8056951564826367 0.0
3.7662396941396254 2.5377598006988786 0.0
1.0510922170633805 0.5558048239365450 0.0
2.8350431413924020 0.2490041261927200 0.0
2.1250840946099383 2.2101129802679020 0.0
3.6017650332162563 2.8379893634738007 0.0
3.1326982315412657 1.0520724488912665 0.0
0.8214566778591513 0.5889048996087508 0.0
4.1653793266150716 2.0729318903498744 0.0
4.1293954393610548 -0.4684027883798409 0.0
3.5618371812864353 1.6572221420893321 0.0
2.2917272565874867 1.5858584707625145 0.0
0.7641786051141772 3.4574472034487687 0.0
0.9836253974961051 0.8438117339579686 0.0
4.2447841001582951 2.0520383024858231 0.0
1.3044220955945514 1.0392191398306270 0.0
1.2331658894431574 0.4809587176335753 0.0
3.1048023455068403 1.8373613146718393 0.0
1.4055401673590175 -0.2955047334762350 0.0
4.2669848534468944 2.4557131403756389 0.0
3.7402132814874647 1.6994708659232574 0.0
3.1843088119751126 2.2182662560510304 0.0
2.8935397752818273 2.9965757644146915 0.0
3.9336653004887223 3.2610138257412538 0.0
0.9490500778681550 0.3004309500081348 0.0
1.7262047843867998 2.4101678847595744 0.0
4.0744026292108977 2.5423052306879863 0.0
3.6905318760013204 -1.4052818742567963 0.0
1.2131529769238656 3.3076046063574500 0.0
1.1641757618953406 0.4786123482476066 0.0
0.9353653613613829 0.3726449322733796 0.0
0.8876628892682190 0.0541857198756091 0.0
4.1200647174190852 2.4634643822182820 0.0
3.8417561109795666 2.8422222590023134 0.0
2.7319383245105056 1.6041218693151098 0.0
1.0308180450540045 1.4839539289856054 0.0
3.9717108076275505 2.6462713563741587 0.0
4.1729846525449359 2.3756280289325802 0.0
4.3051768892318583 2.2330788252484348 0.0
4.0833605440062426 1.9662769652792527 0.0
1.6335521347208837 2.3202479517607162 0.0
3.8006014246213971 -0.1773859413676656 0.0
1.2088478827700748 0.6109342961222129 0.0
3.8543330674945993 1.5626500748768786 0.0
3.9389932032960364 1.4441285602114224 0.0
2.5531279532503968 1.7438701995409249 0.0
3.0579145451865379 1.5178624399399689 0.0
3.0641366029993797 2.0679199870068325 0.0
3.0849663970167742 1.9482111163954474 0.0
3.3658524813646924 1.7881882625611643 0.0
3.9859984005590277 2.2661751464782909 0.0
1.0368823423871527 0.1423878521439544 0.0
2.8804708003093582 2.1274083059696300 0.0
2.4002667325032450 0.8570573363359852 0.0
2.7222885847555158 1.9717807850825007 0.0
2.4016881696591739 -0.0470265304992905 0.0
4.1536430797626842 -0.7751346541451106 0.0
0.9399195246728870 0.9566417518168151 0.0
2.3130169493892523 -1.0760525516639112 0.0