# vtk DataFile Version 3.0
LucasCarvalhoTCC Results
ASCII

DATASET POLYDATA
FIELD FieldData 1
TIME 1 1 double
0.0

POINTS 531 float
0.02430399999999999 0.16425 0.0
0.5913384 0.481878 0.0
1.30475 0.591832 0.0
0.774126 0.951272 0.0
0.04779564148251592 0.1966194329439859 0.0
0.0726092153537953 0.2279866320496896 0.0
0.09876577335895967 0.2582426022760065 0.0
0.1262817198684718 0.2872673048853742 0.0
0.1551671626852806 0.3149288071400502 0.0
0.1854238368919928 0.3410826624766006 0.0
0.2170424591499632 0.3655716640299072 0.0
0.2499995164635996 0.3882263409476824 0.0
0.2842534387828506 0.4088665906889567 0.0
0.3197403359862048 0.4273050841371062 0.0
0.3563695945475563 0.4433531534921038 0.0
0.3940201673622058 0.4568300511916809 0.0
0.4325386107291805 0.4675762214989666 0.0
0.4717406913237268 0.4754709112408955 0.0
0.5114182513144845 0.480453442081874 0.0
0.5513531678859215 0.4825464217651069 0.0
0.6182637923774223 0.5096055604109244 0.0
0.647389101376845 0.5350126187545199 0.0
0.6784752958296183 0.5579802184492302 0.0
0.7112421079139344 0.5784810076698811 0.0
0.7454110434104482 0.5965507527581431 0.0
0.7807301979183381 0.6122562812860965 0.0
0.8169827939052532 0.6256694297140926 0.0
0.853985522124928 0.6368498290413532 0.0
0.8915818964261243 0.6458353363890481 0.0
0.9296339776508085 0.6526379336565091 0.0
0.9680139759519513 0.6572432424840469 0.0
1.006596418266983 0.659612648128084 0.0
1.045251165872634 0.6596877658251245 0.0
1.083837680945672 0.657397570658483 0.0
1.122201320191055 0.6526688455666412 0.0
1.160173053543044 0.6454405726452737 0.0
1.197574286953346 0.6356824063786186 0.0
1.23422961949795 0.6234159704281613 0.0
1.26998758503999 0.6087366500005643 0.0
1.285086682927543 0.6256533177085738 0.0
1.263669745906668 0.6583917156018083 0.0
1.240480125919214 0.6898988493917133 0.0
1.215532715641304 0.7200329197235763 0.0
1.188869833862339 0.7486599839005789 0.0
1.160556835593143 0.7756559317113654 0.0
1.130680194163798 0.8009104211039757 0.0
1.099347083827048 0.8243335727704395 0.0
1.066684425336412 0.8458643604021228 0.0
1.03283497048792 0.8654772531176074 0.0
0.9979492572630678 0.8831824104874066 0.0
0.9621749986495024 0.8990166556695112 0.0
0.9256475378616493 0.9130272060048579 0.0
0.8884846540507749 0.9252538945090274 0.0
0.8507866567183312 0.935715378288671 0.0
0.8126405010322847 0.9444016349017643 0.0
0.7365055179612304 0.9396161853607135 0.0
0.699310855231089 0.9266666891603924 0.0
0.6626179171945521 0.9123577070090924 0.0
0.6264901449910028 0.8966765244755546 0.0
0.5909789825447118 0.8796450886595113 0.0
0.556124897941028 0.8613059841617771 0.0
0.5219601957009091 0.8417124664434518 0.0
0.4885110616878257 0.8209207172498462 0.0
0.4558007060429968 0.7989848675704875 0.0
0.4238520247653796 0.775953675763176 0.0
0.3926900138417566 0.7518687036338616 0.0
0.3623437622133722 0.7267636709390595 0.0
0.3328479550295906 0.7006647540504483 0.0
0.3042438201183181 0.6735915983461908 0.0
0.2765795358619001 0.6455588748284606 0.0
0.2499101143933102 0.6165781952942546 0.0
0.2242967982692083 0.5866601984136335 0.0
0.1998060807431611 0.5558166834807132 0.0
0.1765083808984156 0.5240625786010467 0.0
0.154476512720734 0.491417660368959 0.0
0.133784033184808 0.457907916333494 0.0
0.114503564227142 0.4235664945146766 0.0
0.09670517293008124 0.3884342245925089 0.0
0.0804548910754031 0.3525597611689231 0.0
0.06581337946329963 0.3159993090744527 0.0
0.05283482490365372 0.2788161107032479 0.0
0.0415660226296666 0.2410796291505872 0.0
0.03204569406625649 0.2028646095712164 0.0
0.5272009874003867 0.6419624505772817 0.0
0.7421848286576707 0.7716726266421574 0.0
0.8789503364783713 0.7829234141383637 0.0
0.6149390992905563 0.7449438030688011 0.0
0.4064556042659638 0.5942834991165423 0.0
0.9875021850865396 0.7666507358101158 0.0
0.3188065960661005 0.539594034984892 0.0
0.61365100263957 0.6399487878797632 0.0
0.8049090660915541 0.8464379870891131 0.0
0.7099820328572021 0.6828840522539854 0.0
0.5239467234991928 0.7406922291088611 0.0
0.8154056325591208 0.7211774015928547 0.0
0.6676178829014909 0.8152713180209475 0.0
0.4416080359619968 0.674360953773491 0.0
0.489443615375965 0.5654986742123573 0.0
1.076665773779852 0.7387182918829318 0.0
0.250390543112057 0.4877450112830265 0.0
0.5736819937919005 0.5790366884881447 0.0
0.7263706755366466 0.8615301097563091 0.0
0.940143307772686 0.8233944909985552 0.0
0.927065543677544 0.7236459161626674 0.0
0.8744389806957806 0.8609114380468947 0.0
0.336888362650554 0.6081958070931937 0.0
0.2030757334857187 0.4383942902513459 0.0
0.3861483329720647 0.5255533415902591 0.0
0.5621001921466506 0.7923778419149285 0.0
0.6822897332295245 0.7428043323059399 0.0
0.5764061681675353 0.6881266532454204 0.0
1.129195449682892 0.7163224153578123 0.0
0.8157794419559141 0.7831214907157077 0.0
0.3806644703311284 0.6554275822782399 0.0
0.7695737871052837 0.669593045341503 0.0
0.4699375460410929 0.6217118815516158 0.0
0.6830867370872363 0.630350317562806 0.0
1.040416897214502 0.7929392348941093 0.0
0.4604428393605979 0.7321209818568342 0.0
0.8729552856459739 0.7015083313474691 0.0
1.017010765275644 0.7166925631396708 0.0
0.6458785458483771 0.6946878992565794 0.0
0.7733575582969163 0.8941098392103913 0.0
0.4457537579383052 0.5273353624588528 0.0
0.163830623786951 0.3903175742448083 0.0
0.6095823984734953 0.8256600013628639 0.0
0.2618074352614998 0.5435604438425528 0.0
0.6287880420949764 0.5875838132975476 0.0
0.3100402147222924 0.4835410260423071 0.0
0.5422177893302824 0.5343158927797464 0.0
0.9964262112680041 0.8213447667248638 0.0
0.4971609598823845 0.6906859160718212 0.0
0.5740517260168769 0.633982031239429 0.0
0.7423299505107201 0.7218768583704394 0.0
0.767147744476665 0.819658485932403 0.0
0.9427329070375209 0.7774595780066723 0.0
0.8375285793481674 0.8869398470561132 0.0
0.2879426409425497 0.5872676364411625 0.0
0.6797562629663748 0.8647676397847667 0.0
1.171674168522591 0.6949964056806914 0.0
0.5261010885606964 0.6055079299963303 0.0
0.7081534744446967 0.8078672678314597 0.0
0.9681672688626206 0.705385299758921 0.0
0.7364069054947873 0.6432919177737106 0.0
0.363826821075015 0.5678764295233764 0.0
0.826170216989844 0.6605791783255148 0.0
0.1284439337099834 0.3602715082199688 0.0
0.518140828090112 0.783905985497134 0.0
0.8452908336054504 0.8167586152211004 0.0
0.2015204468558833 0.492088055688788 0.0
0.4005883523205732 0.7121294304856254 0.0
0.3551392316798573 0.4864133323669936 0.0
0.2501727034998737 0.4443035857235296 0.0
0.857938396055507 0.7390317828783199 0.0
0.9245301815433076 0.8668102132501951 0.0
0.5702050292970205 0.7323438487067678 0.0
1.111607633075016 0.759318252473435 0.0
0.6317193755596126 0.7853891653733797 0.0
0.7921381265818805 0.7497379312370454 0.0
1.088942426366261 0.7015435214091311 0.0
0.5818207607488639 0.5352340257544296 0.0
0.4203532416309484 0.6369649631143086 0.0
0.4854818714173937 0.5131439318707094 0.0
0.4475429831528036 0.5690430472086269 0.0
0.8968753306595262 0.8225547516037004 0.0
0.6339557898063448 0.8543470494763272 0.0
0.3416564411796998 0.6516449771136894 0.0
1.082970576264455 0.7856036465430698 0.0
0.2255204648032354 0.5229464838393291 0.0
0.7335043541589261 0.9012744999286941 0.0
0.9097052989734319 0.6921177492721042 0.0
0.5363428275528405 0.6992389299864537 0.0
0.9657777897300287 0.8588269742066746 0.0
1.025947476617909 0.7556651119714124 0.0
0.1090829970454354 0.3226173037985549 0.0
0.4836644525169279 0.7663103281018557 0.0
0.6910856326166581 0.777867529208468 0.0
0.6694391877434097 0.5946719355048008 0.0
0.2954883530575775 0.4501042133334518 0.0
0.6746032498128595 0.6643957640016517 0.0
1.054636636429828 0.6974583960183274 0.0
0.8939255235163368 0.7470597914537064 0.0
0.3749741568555516 0.6190655430398917 0.0
1.204101441114554 0.6801433534918062 0.0
0.6130053345415899 0.6785345531932346 0.0
0.7679719108452487 0.8562682874000032 0.0
0.9710820219997449 0.8008372590855476 0.0
0.1608022352294362 0.4242591696906621 0.0
0.2865399820604418 0.5141369963640697 0.0
0.1962258775846918 0.4008383427744516 0.0
0.6210920174972845 0.5516143721732873 0.0
0.4843009180093644 0.6583977883024127 0.0
0.5695029195102991 0.8267073580550881 0.0
0.9562891163300477 0.7436031251145003 0.0
0.4174190173896447 0.5044019081507806 0.0
0.410860431802698 0.5535781448116232 0.0
0.8709320861791604 0.9002602580953145 0.0
0.427354757192076 0.7399041791280969 0.0
0.7107884943357746 0.7172753954970394 0.0
1.030382288537246 0.8267335242583146 0.0
0.7737440530215844 0.7115751739064536 0.0
0.8042035044852396 0.9123190309183211 0.0
0.0480920891272324 0.2181807374272496 0.0
0.3695079235280397 0.6886893012630373 0.0
0.773516204411121 0.7830673827025234 0.0
0.302776671534508 0.6210168062901616 0.0
0.7150573728414059 0.6149413270404035 0.0
0.5863276441271683 0.769748656022605 0.0
1.143752049005473 0.6780480059671409 0.0
0.6477132714923303 0.7318578097016951 0.0
0.8380052680878572 0.8531154611905379 0.0
0.5966224054445893 0.6051703156405629 0.0
0.3207240819522855 0.5772784374275386 0.0
0.3520131451607586 0.5263918604440553 0.0
0.8573528491808811 0.6709738722470224 0.0
0.1797236573643203 0.460867988842514 0.0
0.5540828191547277 0.6661566975721369 0.0
1.158039843450239 0.7357536542887966 0.0
0.08638006908591334 0.286237566592474 0.0
0.790861820497242 0.6466611559014377 0.0
0.5362079962218838 0.8121454698907893 0.0
0.9405172130232713 0.6862060282668497 0.0
0.6039359324506977 0.711463595189489 0.0
0.4440093493753478 0.6096873538428137 0.0
0.5500746279087338 0.7620941994763282 0.0
0.2578504496023611 0.5739900063885278 0.0
0.502526452350101 0.6209820553182169 0.0
0.6799833858912959 0.7033681517905728 0.0
0.7183487148906835 0.7518430858176317 0.0
0.8006701240044786 0.8118713608014352 0.0
0.1304684854221093 0.3934039266496895 0.0
1.00789495394612 0.7937868725857601 0.0
0.696960396255943 0.893370944718147 0.0
0.8258315165019564 0.7538365084989149 0.0
0.8462950259502577 0.775614153529746 0.0
0.4082018839227037 0.6749460331934272 0.0
0.7025889307788081 0.8378536687159448 0.0
0.4666676520109517 0.6984557076050861 0.0
[...]
POINT_DATA 531

VECTORS Velocity float
0.0000000000000000 1.0000000000000000 0.0
0.0000000000000000 1.0000000000000000 0.0
2.3801809734343653 -1.2362738064111598 0.0
2.9338529627362098 0.9746963193862334 0.0
0.0000000000000000 1.0000000000000000 0.0
0.0000000000000000 1.0000000000000000 0.0
0.0000000000000000 1.0000000000000000 0.0
0.0000000000000000 1.0000000000000000 0.0
0.0000000000000000 1.0000000000000000 0.0
0.0000000000000000 1.0000000000000000 0.0
0.0000000000000000 1.0000000000000000 0.0
0.0000000000000000 1.0000000000000000 0.0
0.0000000000000000 1.0000000000000000 0.0
0.0000000000000000 1.0000000000000000 0.0
0.0000000000000000 1.0000000000000000 0.0
0.0000000000000000 1.0000000000000000 0.0
0.0000000000000000 1.0000000000000000 0.0
0.0000000000000000 1.0000000000000000 0.0
0.0000000000000000 1.0000000000000000 0.0
0.0000000000000000 1.0000000000000000 0.0
0.0000000000000000 0.0000000000000000 0.0
0.0000000000000000 0.0000000000000000 0.0
0.0000000000000000 0.0000000000000000 0.0
0.0000000000000000 0.0000000000000000 0.0
0.0000000000000000 0.0000000000000000 0.0
0.0000000000000000 0.0000000000000000 0.0
0.0000000000000000 0.0000000000000000 0.0
0.0000000000000000 0.0000000000000000 0.0
0.0000000000000000 0.0000000000000000 0.0
0.0000000000000000 0.0000000000000000 0.0
0.0000000000000000 0.0000000000000000 0.0
0.0000000000000000 0.0000000000000000 0.0
0.0000000000000000 0.0000000000000000 0.0
0.0000000000000000 0.0000000000000000 0.0
0.0000000000000000 0.0000000000000000 0.0
0.0000000000000000 0.0000000000000000 0.0
0.0000000000000000 0.0000000000000000 0.0
0.0000000000000000 0.0000000000000000 0.0
0.0000000000000000 0.0000000000000000 0.0
2.4709534866987326 -1.1359525402873925 0.0
2.4875420957223842 -0.9715846163312520 0.0
2.5365542268755528 -0.8115169409837525 0.0
2.5848113061548679 -0.6588756540604533 0.0
2.6093941486025565 -0.5180247412056728 0.0
2.6176869400627343 -0.3361162987871640 0.0
2.6717141923487691 -0.1918935987365309 0.0
2.6895312179414761 -0.0647249604777781 0.0
2.7044118125881731 0.0875922587918508 0.0
2.7361674128230056 0.2292871503567868 0.0
2.7569559272270441 0.3537448306133712 0.0
2.7745057879484540 0.4773432136954537 0.0
2.8076823060032359 0.6019334905979524 0.0
2.8135497761675436 0.7162419053029412 0.0
2.8359067897825199 0.8315760534835022 0.0
2.8535833746632044 0.9795856786915660 0.0
0.0000000000000000 0.0000000000000000 0.0
0.0000000000000000 0.0000000000000000 0.0
0.0000000000000000 0.0000000000000000 0.0
0.0000000000000000 0.0000000000000000 0.0
0.0000000000000000 0.0000000000000000 0.0
0.0000000000000000 0.0000000000000000 0.0
0.0000000000000000 0.0000000000000000 0.0
0.0000000000000000 0.0000000000000000 0.0
0.0000000000000000 0.0000000000000000 0.0
0.0000000000000000 0.0000000000000000 0.0
0.0000000000000000 0.0000000000000000 0.0
0.0000000000000000 0.0000000000000000 0.0
0.0000000000000000 0.0000000000000000 0.0
0.0000000000000000 0.0000000000000000 0.0
0.0000000000000000 0.0000000000000000 0.0
0.0000000000000000 0.0000000000000000 0.0
0.0000000000000000 0.0000000000000000 0.0
0.0000000000000000 0.0000000000000000 0.0
0.0000000000000000 0.0000000000000000 0.0
0.0000000000000000 0.0000000000000000 0.0
0.0000000000000000 0.0000000000000000 0.0
0.0000000000000000 0.0000000000000000 0.0
0.0000000000000000 0.0000000000000000 0.0
0.0000000000000000 0.0000000000000000 0.0
0.0000000000000000 0.0000000000000000 0.0
0.0000000000000000 0.0000000000000000 0.0
0.0000000000000000 0.0000000000000000 0.0
0.0000000000000000 0.0000000000000000 0.0
2.4767182751121131 1.7832634189123817 0.0
2.8538825842985589 1.1203485577831382 0.0
2.9213472521517532 0.6771001987897146 0.0
2.6846878291625695 1.4712909139294081 0.0
2.3334967159671076 2.0835970279332301 0.0
2.8831219604972058 0.2729022184789086 0.0
2.1858655473969288 2.3830918703127399 0.0
2.5804945809672235 1.6537673110093329 0.0
2.9001239851835776 0.9136651083965753 0.0
2.8102381012516924 1.3565039159363579 0.0
2.5591631891367008 1.6768015797902605 0.0
2.9294802826376789 0.9285375753017155 0.0
2.7900694771152637 1.2605098544811253 0.0
2.4260957384848321 1.9246253453778031 0.0
2.3745658163891274 1.8929863053893183 0.0
2.8142278672162013 -0.1046087673950246 0.0
1.9636269875787948 2.6322270953932341 0.0
2.3827122467569972 1.7756895393983645 0.0
2.8628488879312752 1.0742574934658422 0.0
2.8754520085778301 0.4724660436675511 0.0
2.9721885818478531 0.4804889413590060 0.0
2.8952577545820426 0.7015678770804102 0.0
2.2582282574504049 2.2371357262898695 0.0
1.7339435486288071 2.7943300977778831 0.0
2.2551908484870200 2.2431617432676529 0.0
2.6371083111413731 1.5400948891908164 0.0
2.7788021779203405 1.3116897995181134 0.0
2.5776959526706187 1.6421740428630487 0.0
2.7595609535624663 -0.3659964322533447 0.0
2.9065018920490138 0.9067895170884254 0.0
2.3441655650960076 2.0711819458118526 0.0
2.9259577381595023 1.1774036634914931 0.0
2.4093361707609877 1.9086090517829741 0.0
2.7290682542510458 1.5464428411680251 0.0
2.8098791778331265 0.0809346961916584 0.0
2.4783440685137723 1.8193611209886127 0.0
2.9947535095005513 0.6957973285015185 0.0
2.9130126299437964 0.0875838855382703 0.0
2.7006501897855806 1.4951152244429082 0.0
2.9304701485714748 0.9747827641459422 0.0
2.3561371774399062 2.0155097959063242 0.0
1.5609484692086713 2.9935905158303266 0.0
2.7239350861547948 1.3967827633381038 0.0
2.0675372001583288 2.5168353744678509 0.0
2.5405255462640817 1.7560370342933203 0.0
2.1313413311932545 2.4768038544731730 0.0
2.3255300185471945 1.7816327983848095 0.0
2.8397309829759063 0.2762003549257176 0.0
2.4896306883613519 1.7893457929791827 0.0
2.5090439009418812 1.7163503158991749 0.0
2.8599587333776109 1.1757842342470870 0.0
2.8842584463781162 1.0170377590778581 0.0
2.8947746347988859 0.4341838329871168 0.0
2.9207692195871147 0.8267240901378956 0.0
2.1689575480077923 2.3911521167034446 0.0
2.8219221530262746 1.1799838896898875 0.0
2.6897705465614439 -0.5450501194802601 0.0
2.4207272933175168 1.8226210230556505 0.0
2.8311110582098684 1.1662701491357481 0.0
2.9724537042756474 0.3161790796724010 0.0
2.8803387121267590 1.3152405736652215 0.0
2.2737929575513305 2.2380421230393921 0.0
2.9979935634639592 0.9462368841894485 0.0
1.4492500242880499 3.1274168031311351 0.0
2.6123551025609988 1.6501012724579751 0.0
2.9028078708727794 0.7881677034006542 0.0
1.8860253057833176 2.7228175417740079 0.0
2.4340887436879206 1.9885067391409732 0.0
2.3463303189216820 2.4465461279648069 0.0
2.0110321876729560 2.8328668968706019 0.0
2.9430206649947404 0.7627962995126516 0.0
2.8998065305373539 0.5440340645327223 0.0
2.6157216708035804 1.6008819383007431 0.0
2.7544915061580566 -0.2480959727596379 0.0
2.7299929082218442 1.3977089094483117 0.0
2.9038819970850303 0.9905159462640182 0.0
2.8440524465844388 -0.2238139876966384 0.0
2.2896742106237022 1.7939935262524807 0.0
2.3785618511710735 2.0124722057988147 0.0
2.4456607298609199 1.8849323703201453 0.0
2.3710238612944488 1.9939116396526393 0.0
2.8949290167584940 0.6262620920234432 0.0
2.7935231249113164 1.3185822897113038 0.0
2.3142273562985416 2.1929547542510659 0.0
2.7867116173397166 -0.0702636562907881 0.0
1.9924112878905054 2.6236753082615287 0.0
2.9406603187043494 1.0304174850398227 0.0
2.9900814190868541 0.5774426830636745 0.0
2.5475340349421680 1.7067693872739009 0.0
2.8746163871307422 0.3954580228738546 0.0
2.8612574665005472 0.1118640657578264 0.0
1.3309937172692210 3.2807556221883694 0.0
2.5735278885242696 1.7624273646650497 0.0
2.7967536739843548 1.2436487543170593 0.0
2.6768271179127394 1.6636608310504373 0.0
2.2740772754774028 2.7366127767505142 0.0
2.7289597047188576 1.4746698367937692 0.0
2.8837596053191690 -0.0651383967528838 0.0
2.9253152556460540 0.6183115225588581 0.0
2.3148132090190048 2.1234424077891401 0.0
2.6430876403323880 -0.7207140898693526 0.0
2.6257815531890771 1.5742798156819462 0.0
2.9010285869263535 0.9979070820520707 0.0
2.8774959210376072 0.3453796785679961 0.0
1.6677311709485230 2.9003991346272748 0.0
2.1209777796261609 2.5338206955453857 0.0
1.7923148730268832 2.9675505345949960 0.0
2.3675026071220828 1.8460455647839642 0.0
2.4469633820809964 1.8524630284216743 0.0
2.7110798247556609 1.4965000755033036 0.0
2.9277225616371991 0.3752208615271435 0.0
2.4058582954416599 2.1751934360474694 0.0
2.3411729633212253 2.1123494796679116 0.0
2.9400166120798112 0.7258111142880911 0.0
2.4862054986189883 1.9110143587045128 0.0
2.8175324906341235 1.2806537428105931 0.0
2.8300186181738090 0.1573338509995548 0.0
2.9033864634779896 1.0838968731701222 0.0
2.9983688419080883 0.9271653605746799 0.0
0.7747654504033602 3.4529090541304317 0.0
2.3806309929699192 2.0841934470206618 0.0
2.8780771285743416 1.0217670897933011 0.0
2.2478562245869989 2.3220809681229406 0.0
2.8041616808969003 1.5084327851368231 0.0
2.6748421347043041 1.5051186520350541 0.0
2.7744954156758026 -0.4951417340926870 0.0
2.7181369043467267 1.4337035843023878 0.0
2.9255951616308176 0.8252385015163755 0.0
2.5025896110532884 1.7331721229133956 0.0
2.1880527715906681 2.3249535063943529 0.0
2.2153837689398204 2.3270712329075023 0.0
2.9900612926751760 0.7871872781202335 0.0
1.7854558310504787 2.8125317158719172 0.0
2.5217967399070416 1.7122648583616669 0.0
2.6998302738606812 -0.4128219315175250 0.0
1.2177137653841916 3.3051698176557629 0.0
2.9634503809496651 1.0906688902579467 0.0
2.6766745387438262 1.6030394484339205 0.0
2.9817522564084911 0.4066523310662308 0.0
2.6454927383242124 1.5334312639827585 0.0
2.3785223873178940 1.9735951807352490 0.0
2.6258172243183364 1.6032964573504496 0.0
2.1177746624204117 2.4813901128217131 0.0
2.4234374474929172 1.8476387816584308 0.0
2.7579284880481536 1.3779806153090122 0.0
2.8309221804422404 1.2029081270072375 0.0
2.8979237320641791 0.9302762023033256 0.0
1.4942320927114332 2.9724707589474666 0.0
2.8514891312901742 0.2223998245202617 0.0
2.8895645675910955 1.1283780145641797 0.0
2.9146100872024565 0.8700034051132211 0.0
2.9109003891704881 0.7932069221554127 0.0
2.3946723454564776 1.9871173174867618 0.0
2.8353129112425464 1.1568976553637205 0.0
2.4740991660836040 1.8531707973097249 0.0
2.6579491155162631 1.6229134862469852 0.0
2.8699376197194004 1.2155754083954038 0.0
2.7540103626508619 1.3549301046194053 0.0
2.9368341007485026 0.1536191933349939 0.0
2.3751743716039724 1.8048183660297841 0.0
2.9799541445641884 0.8653979558619503 0.0
2.5100882094982055 1.7718189495645751 0.0
2.9284969879030069 0.2335858695701644 0.0
2.7975386162067681 0.0337851277247815 0.0
2.0462183617772602 2.5416180343963952 0.0
2.5886558973539930 -0.8841521905215576 0.0
2.5706345911520447 1.6563435900965406 0.0
2.8140679523700420 1.4352110902937483 0.0
2.9144380187881200 0.9100241250983054 0.0
1.8665227723458029 2.7361906324213998 0.0
2.1751387323051192 1.6125858023758579 0.0
2.3817595613092775 1.9174363760042612 0.0
2.4613380944756895 2.3454234756836598 0.0
2.7725407614576412 -0.2108012416156000 0.0
2.9106293659790103 0.5576158231518744 0.0
2.4465298161249227 1.7759473417876239 0.0
2.5350298807887937 1.8411379438802054 0.0
2.4084161135140540 2.6337573289231622 0.0
2.1461927287797837 2.4184888289585844 0.0
2.0015744339843193 3.0299838049932011 0.0
2.5383279738315090 2.0192522906137902 0.0
2.3619087752382359 1.7681355668983092 0.0
1.8014689278722265 3.2253825175470525 0.0
3.0120595775770380 0.9551988811705447 0.0
2.5325891520804915 -1.0166644895271455 0.0
2.4362282691512296 1.9052180209708094 0.0
2.8424438197062996 1.2235194508166494 0.0
2.5363421203442562 1.8040765728619101 0.0
2.1692940708172270 2.4171662512298875 0.0
2.8087672791473626 -0.3549364630703646 0.0
2.9069129389282966 0.6351217951306903 0.0
2.8428114793143675 0.2796348870784719 0.0
2.6596006381133299 1.5553675703618155 0.0
1.1397911421856737 3.3196598501899643 0.0
2.9723946712632694 0.6231764963448391 0.0
2.7501433535009876 1.4154778748300498 0.0
2.8209024658001773 0.0056981986709826 0.0
2.4115987242530053 1.9250542630087186 0.0
2.9419671539567331 0.0395651048956068 0.0
2.8678408843136496 0.0045688090223732 0.0
2.7408477247413838 1.3362588837342202 0.0
2.6490900263280759 -0.5718731567296063 0.0
2.9929329751135594 0.6361904375127037 0.0
2.6876570548043435 1.4542428845462605 0.0
2.3627047388998905 1.9177268614941450 0.0
2.3468213774093574 1.8505078167498790 0.0
2.4959823884893688 1.7728386825769165 0.0
2.8603433200857311 1.0833892282296065 0.0
2.9585849349547808 1.0067957432272683 0.0
2.0264603074740544 2.6784015960667120 0.0
2.8537938186962344 1.1038316810686455 0.0
2.9248288220730290 1.2363800300067636 0.0
2.0305400858801850 2.5673997067304439 0.0
2.9020864051631627 1.0114465982558212 0.0
2.8368495974509820 1.1653171898068670 0.0
2.8798116735275401 1.1072092171593515 0.0
2.5623492820437490 1.6764125417056512 0.0
2.4021490911167827 1.8674408394612751 0.0
2.7041664680038564 -0.6231655431259354 0.0
2.9255411621026490 0.5035991055759954 0.0
2.8510459385356355 0.3615656749507338 0.0
1.7236787518326193 3.1740088796007662 0.0
2.4116586879844202 1.8265377029117371 0.0
1.8938298761938626 1.8790507260677225 0.0
2.5087069235349562 1.7687376692693757 0.0
2.8363867176240181 1.1314863228083332 0.0
2.9189647323882704 0.7178992660859949 0.0
2.6366494120875501 1.4408186999142487 0.0
2.3557627228146312 2.0460855473972384 0.0
2.8876406241951837 0.3201232153362904 0.0
2.2162694181795097 2.3466971125075959 0.0
2.6554584687913607 1.6900519159040657 0.0
2.8043051323528667 0.9324510463706107 0.0
2.9020880004585958 1.4098735706431589 0.0
2.4800681827798807 1.6121339415726406 0.0
3.0171019664081014 0.9738396536389953 0.0
2.6881304482983657 1.2220516034360767 0.0
2.3662623346310414 1.8508601761373362 0.0
2.4818363432846446 1.8938154436910610 0.0
2.8260005332010936 -0.0730968027243462 0.0
1.9970218752992348 2.6097631193276389 0.0
2.5027532851190273 1.8162797770969175 0.0
2.7433458992069051 1.0467320739646118 0.0
2.8158653585867173 0.5218828363886998 0.0
3.0485809296982698 0.5189155822266459 0.0
2.8024321009553557 0.7402587522751206 0.0
2.2330841856042909 2.1759365045692132 0.0
1.7625790321386698 2.7907838566791234 0.0
2.3412266830331823 2.2430643715426339 0.0
2.5312761708164095 1.4753900051558047 0.0
2.7755011487203216 1.3139080084680623 0.0
2.5756821428393462 1.6278259994888258 0.0
2.7715508966492428 -0.3395428458630091 0.0
2.8974239978184735 0.9372537839820552 0.0
2.2864234901582736 1.9936321464839515 0.0
3.0489659070335846 1.2366224959817136 0.0
2.4347847903328423 1.8789188132314922 0.0
2.8428750798063716 1.6123601465321409 0.0
2.7719593421150877 0.1274213295190306 0.0
2.3859494941769741 1.7397821062757726 0.0
3.0997899269359150 0.7356236555509597 0.0
2.9687364023343559 0.1120780061500845 0.0
2.7330732234332218 1.5115943631495679 0.0
2.8087765309378638 0.9693933248170196 0.0
2.4753911491106324 2.0173889282715574 0.0
1.5858327910189283 2.9966528312365495 0.0
2.6127173926798046 1.3403961363076047 0.0
2.0561346879354843 2.4699456889666922 0.0
2.6585243860685610 1.8200569464794853 0.0
2.1989234197391956 2.4814057021494724 0.0
2.4654288064352077 1.8090113551182196 0.0
2.7722330226429595 0.3314100196336531 0.0
2.4409725750163780 1.7308911876208806 0.0
2.5694343271788767 1.7276027693034484 0.0
2.9109998790890179 1.2062219630039916 0.0
2.8150986422767228 1.0237722992691920 0.0
2.8858678696534783 0.4838657771537145 0.0
2.7494967773358825 0.8668233075624374 0.0
2.1040178850819236 2.2905517522178891 0.0
2.6922759249573254 1.1331738478958051 0.0
2.7006434927810434 -0.5211127640248783 0.0
2.4881676938463242 1.8276870194148411 0.0
2.7564528691747099 1.1494016936091862 0.0
3.1101631131608940 0.3529772460144655 0.0
3.0672024947691119 1.3990631494466657 0.0
2.3008612016090724 2.1976127272682429 0.0
3.2493141562887495 1.0306864489578083 0.0
1.4621002504642400 3.1126201813468537 0.0
2.4455105583656254 1.5374313971882827 0.0
2.8419652646401361 0.8236605964943318 0.0
1.8514511944053627 2.6442585779673369 0.0
2.2630597238832419 1.8355663620785778 0.0
2.4848212949821358 2.4795299547914924 0.0
2.0788326214456876 2.8435153217442362 0.0
3.0112081243957327 0.8076235245753228 0.0
2.7267528171278332 0.6213542353087517 0.0
2.5598081486166069 1.5574646262590945 0.0
2.6896484802703098 -0.1708941466326618 0.0
2.6370095653145542 1.3494003202654010 0.0
2.9341571669467257 1.0215408926307064 0.0
2.9224957065116475 -0.2045794979150851 0.0
2.4448733363586199 1.8585377666916671 0.0
2.3497714747114715 1.9471001919059243 0.0
2.6543000141876423 1.9074872860724361 0.0
2.4537774017592686 1.9787023495270117 0.0
2.8265487874582185 0.6740570743310432 0.0
2.5776978570619096 1.2201525301502349 0.0
2.1881393684970671 2.0557124881181927 0.0
2.6998566582427412 0.0206584709034083 0.0
1.9448946235675255 2.5272853858084363 0.0
2.7158585484905164 0.9670229124652919 0.0
3.1584400220772668 0.6293930352296303 0.0
2.5074668654782668 1.6622925688127337 0.0
2.6949856469153528 0.4837158465376387 0.0
2.8735106373846464 0.1643447639565571 0.0
1.3366869321037285 3.2794977536654475 0.0
2.3732332934026079 1.6248277105162807 0.0
2.7459186795139208 1.2300991734796658 0.0
2.9071599296270283 1.8041591101205676 0.0
2.3827183413178372 2.7715109628557695 0.0
2.8266095739520427 1.5230187404094209 0.0
3.0159986899826916 -0.0454807640213298 0.0
2.9718921653516825 0.6642533777177124 0.0
2.2866161761504169 2.0488896425917251 0.0
2.6431734812523877 -0.6844250590135362 0.0
2.6600881428442440 1.5835622678960566 0.0
2.7798032160346287 0.9926769482131915 0.0
2.8283683577478733 0.4026466694605991 0.0
1.6612722020344477 2.8561965996313088 0.0
2.1500753775242645 2.5050605513758897 0.0
1.8300507459236708 2.9784037106008205 0.0
2.5798576424641304 1.9965867026587394 0.0
2.4324289730528887 1.8069660382528610 0.0
2.4888047630073240 1.3690849478936835 0.0
2.9812318488802783 0.4185817304393199 0.0
2.5566609930424242 2.1936362432972185 0.0
2.4345629995442901 2.0996886265034416 0.0
2.7088017257740162 0.7896981841433421 0.0
2.2940695657318009 1.7547921307451200 0.0
2.8603282056123964 1.3112750080179376 0.0
2.6922644005301057 0.2509306561775735 0.0
2.9916973174701922 1.1302877801841267 0.0
2.7559680021144737 0.9707590957729529 0.0
0.7747654504033602 3.4529090541304326 0.0
2.2222709717855942 1.9309285165624386 0.0
2.8564470122662473 1.0399597311046900 0.0
2.1224851247732874 2.1686814701668626 0.0
3.0700166175065102 1.6512538410198829 0.0
2.5812587692953097 1.4484544661419030 0.0
2.8526885362721308 -0.4930452626737905 0.0
2.7105273995696710 1.4307739541414153 0.0
2.8187267963716502 0.8589703896560510 0.0
2.6117652393485322 1.7835149181472769 0.0
2.1706201651702242 2.2688389690126702 0.0
2.2912756719753702 2.3204267162783783 0.0
3.2416116368160570 0.8605882671671874 0.0
1.7602084781740537 2.7446747382468293 0.0
2.5361983228440139 1.6991594111152590 0.0
2.6492524719162875 -0.3423507175820911 0.0
1.2185442813483887 3.3044678864098471 0.0
3.2225808702803982 1.1896272431530188 0.0
2.4368985334749977 1.4524711396371766 0.0
3.2163819349814666 0.4503508585057566 0.0
2.6355904854503920 1.5171315835950860 0.0
2.4070232905660207 1.9363892992473613 0.0
2.5186062252338544 1.5303219330321325 0.0
2.0194832640099807 2.3545621915165174 0.0
2.4598390593747226 1.8264018025007620 0.0
2.7987222813150860 1.3971141004949854 0.0
2.8319991847074801 1.2146477766297425 0.0
2.8431516553265590 0.9487706782586097 0.0
1.4931430055899286 2.9281179321769799 0.0
2.8082788771627696 0.2832302362543486 0.0
2.6568528589778544 1.0480871462915002 0.0
2.9460351282030555 0.9053281560027912 0.0
2.9142483725794821 0.8321839925481422 0.0
2.3295823026552567 1.9041546690902220 0.0
2.7066539176500508 1.1187043256220119 0.0
2.3990163700351079 1.7732431086381675 0.0
2.7764918887034828 1.6869660089376575 0.0
2.9762717833986012 1.2613072020160678 0.0
2.7028131989288426 1.3366091632543438 0.0
3.1265988473138577 0.1728817478682761 0.0
2.4934721432214539 1.8223731394019491 0.0
3.0959314719663853 0.9154603058293624 0.0
2.4263202110263604 1.7025667259126205 0.0
2.9819288620897919 0.2742475442981129 0.0
2.6650701228896163 0.1355033202679120 0.0
1.9643442877345545 2.4174019808023526 0.0
2.6039099198030038 -0.8722921386054878 0.0
2.6127614347519894 1.6654976905571162 0.0