# vtk DataFile Version 3.0
LucasCarvalhoTCC Results
ASCII

DATASET POLYDATA
FIELD FieldData 1
TIME 1 1 double
1.6

POINTS 531 float
0.02430399999999999 0.16425 0.0
0.5913384 0.481878 0.0
1.30475 0.591832 0.0
0.774126 0.951272 0.0
0.04779564148251592 0.1966194329439859 0.0
0.0726092153537953 0.2279866320496896 0.0
0.09876577335895967 0.2582426022760065 0.0
0.1262817198684718 0.2872673048853742 0.0
0.1551671626852806 0.3149288071400502 0.0
0.1854238368919928 0.3410826624766006 0.0
0.2170424591499632 0.3655716640299072 0.0
0.2499995164635996 0.3882263409476824 0.0
0.2842534387828506 0.4088665906889567 0.0
0.3197403359862048 0.4273050841371062 0.0
0.3563695945475563 0.4433531534921038 0.0
0.3940201673622058 0.4568300511916809 0.0
0.4325386107291805 0.4675762214989666 0.0
0.4717406913237268 0.4754709112408955 0.0
0.5114182513144845 0.480453442081874 0.0
0.5513531678859215 0.4825464217651069 0.0
0.6182637923774223 0.5096055604109244 0.0
0.647389101376845 0.5350126187545199 0.0
0.6784752958296183 0.5579802184492302 0.0
0.7112421079139344 0.5784810076698811 0.0
0.7454110434104482 0.5965507527581431 0.0
0.7807301979183381 0.6122562812860965 0.0
0.8169827939052532 0.6256694297140926 0.0
0.853985522124928 0.6368498290413532 0.0
0.8915818964261243 0.6458353363890481 0.0
0.9296339776508085 0.6526379336565091 0.0
0.9680139759519513 0.6572432424840469 0.0
1.006596418266983 0.659612648128084 0.0
1.045251165872634 0.6596877658251245 0.0
1.083837680945672 0.657397570658483 0.0
1.122201320191055 0.6526688455666412 0.0
1.160173053543044 0.6454405726452737 0.0
1.197574286953346 0.6356824063786186 0.0
1.23422961949795 0.6234159704281613 0.0
1.26998758503999 0.6087366500005643 0.0
1.285086682927543 0.6256533177085738 0.0
1.263669745906668 0.6583917156018083 0.0
1.240480125919214 0.6898988493917133 0.0
1.215532715641304 0.7200329197235763 0.0
1.188869833862339 0.7486599839005789 0.0
1.160556835593143 0.7756559317113654 0.0
1.130680194163798 0.8009104211039757 0.0
1.099347083827048 0.8243335727704395 0.0
1.066684425336412 0.8458643604021228 0.0
1.03283497048792 0.8654772531176074 0.0
0.9979492572630678 0.8831824104874066 0.0
0.9621749986495024 0.8990166556695112 0.0
0.9256475378616493 0.9130272060048579 0.0
0.8884846540507749 0.9252538945090274 0.0
0.8507866567183312 0.935715378288671 0.0
0.8126405010322847 0.9444016349017643 0.0
0.7365055179612304 0.9396161853607135 0.0
0.699310855231089 0.9266666891603924 0.0
0.6626179171945521 0.9123577070090924 0.0
0.6264901449910028 0.8966765244755546 0.0
0.5909789825447118 0.8796450886595113 0.0
0.556124897941028 0.8613059841617771 0.0
0.5219601957009091 0.8417124664434518 0.0
0.4885110616878257 0.8209207172498462 0.0
0.4558007060429968 0.7989848675704875 0.0
0.4238520247653796 0.775953675763176 0.0
0.3926900138417566 0.7518687036338616 0.0
0.3623437622133722 0.7267636709390595 0.0
0.3328479550295906 0.7006647540504483 0.0
0.3042438201183181 0.6735915983461908 0.0
0.2765795358619001 0.6455588748284606 0.0
0.2499101143933102 0.6165781952942546 0.0
0.2242967982692083 0.5866601984136335 0.0
0.1998060807431611 0.5558166834807132 0.0
0.1765083808984156 0.5240625786010467 0.0
0.154476512720734 0.491417660368959 0.0
0.133784033184808 0.457907916333494 0.0
0.114503564227142 0.4235664945146766 0.0
0.09670517293008124 0.3884342245925089 0.0
0.0804548910754031 0.3525597611689231 0.0
0.06581337946329963 0.3159993090744527 0.0
0.05283482490365372 0.2788161107032479 0.0
0.0415660226296666 0.2410796291505872 0.0
0.03204569406625649 0.2028646095712164 0.0
0.5272009874003867 0.6419624505772817 0.0
0.7421848286576707 0.7716726266421574 0.0
0.8789503364783713 0.7829234141383637 0.0
0.6149390992905563 0.7449438030688011 0.0
0.4064556042659638 0.5942834991165423 0.0
0.9875021850865396 0.7666507358101158 0.0
0.3188065960661005 0.539594034984892 0.0
0.61365100263957 0.6399487878797632 0.0
0.8049090660915541 0.8464379870891131 0.0
0.7099820328572021 0.6828840522539854 0.0
0.5239467234991928 0.7406922291088611 0.0
0.8154056325591208 0.7211774015928547 0.0
0.6676178829014909 0.8152713180209475 0.0
0.4416080359619968 0.674360953773491 0.0
0.489443615375965 0.5654986742123573 0.0
1.076665773779852 0.7387182918829318 0.0
0.250390543112057 0.4877450112830265 0.0
0.5736819937919005 0.5790366884881447 0.0
0.7263706755366466 0.8615301097563091 0.0
0.940143307772686 0.8233944909985552 0.0
0.927065543677544 0.7236459161626674 0.0
0.8744389806957806 0.8609114380468947 0.0
0.336888362650554 0.6081958070931937 0.0
0.2030757334857187 0.4383942902513459 0.0
0.3861483329720647 0.5255533415902591 0.0
0.5621001921466506 0.7923778419149285 0.0
0.6822897332295245 0.7428043323059399 0.0
0.5764061681675353 0.6881266532454204 0.0
1.129195449682892 0.7163224153578123 0.0
0.8157794419559141 0.7831214907157077 0.0
0.3806644703311284 0.6554275822782399 0.0
0.7695737871052837 0.669593045341503 0.0
0.4699375460410929 0.6217118815516158 0.0
0.6830867370872363 0.630350317562806 0.0
1.040416897214502 0.7929392348941093 0.0
0.4604428393605979 0.7321209818568342 0.0
0.8729552856459739 0.7015083313474691 0.0
1.017010765275644 0.7166925631396708 0.0
0.6458785458483771 0.6946878992565794 0.0
0.7733575582969163 0.8941098392103913 0.0
0.4457537579383052 0.5273353624588528 0.0
0.163830623786951 0.3903175742448083 0.0
0.6095823984734953 0.8256600013628639 0.0
0.2618074352614998 0.5435604438425528 0.0
0.6287880420949764 0.5875838132975476 0.0
0.3100402147222924 0.4835410260423071 0.0
0.5422177893302824 0.5343158927797464 0.0
0.9964262112680041 0.8213447667248638 0.0
0.4971609598823845 0.6906859160718212 0.0
0.5740517260168769 0.633982031239429 0.0
0.7423299505107201 0.7218768583704394 0.0
0.767147744476665 0.819658485932403 0.0
0.9427329070375209 0.7774595780066723 0.0
0.8375285793481674 0.8869398470561132 0.0
0.2879426409425497 0.5872676364411625 0.0
0.6797562629663748 0.8647676397847667 0.0
1.171674168522591 0.6949964056806914 0.0
0.5261010885606964 0.6055079299963303 0.0
0.7081534744446967 0.8078672678314597 0.0
0.9681672688626206 0.705385299758921 0.0
0.7364069054947873 0.6432919177737106 0.0
0.363826821075015 0.5678764295233764 0.0
0.826170216989844 0.6605791783255148 0.0
0.1284439337099834 0.3602715082199688 0.0
0.518140828090112 0.783905985497134 0.0
0.8452908336054504 0.8167586152211004 0.0
0.2015204468558833 0.492088055688788 0.0
0.4005883523205732 0.7121294304856254 0.0
0.3551392316798573 0.4864133323669936 0.0
0.2501727034998737 0.4443035857235296 0.0
0.857938396055507 0.7390317828783199 0.0
0.9245301815433076 0.8668102132501951 0.0
0.5702050292970205 0.7323438487067678 0.0
1.111607633075016 0.759318252473435 0.0
0.6317193755596126 0.7853891653733797 0.0
0.7921381265818805 0.7497379312370454 0.0
1.088942426366261 0.7015435214091311 0.0
0.5818207607488639 0.5352340257544296 0.0
0.4203532416309484 0.6369649631143086 0.0
0.4854818714173937 0.5131439318707094 0.0
0.4475429831528036 0.5690430472086269 0.0
0.8968753306595262 0.8225547516037004 0.0
0.6339557898063448 0.8543470494763272 0.0
0.3416564411796998 0.6516449771136894 0.0
1.082970576264455 0.7856036465430698 0.0
0.2255204648032354 0.5229464838393291 0.0
0.7335043541589261 0.9012744999286941 0.0
0.9097052989734319 0.6921177492721042 0.0
0.5363428275528405 0.6992389299864537 0.0
0.9657777897300287 0.8588269742066746 0.0
1.025947476617909 0.7556651119714124 0.0
0.1090829970454354 0.3226173037985549 0.0
0.4836644525169279 0.7663103281018557 0.0
0.6910856326166581 0.777867529208468 0.0
0.6694391877434097 0.5946719355048008 0.0
0.2954883530575775 0.4501042133334518 0.0
0.6746032498128595 0.6643957640016517 0.0
1.054636636429828 0.6974583960183274 0.0
0.8939255235163368 0.7470597914537064 0.0
0.3749741568555516 0.6190655430398917 0.0
1.204101441114554 0.6801433534918062 0.0
0.6130053345415899 0.6785345531932346 0.0
0.7679719108452487 0.8562682874000032 0.0
0.9710820219997449 0.8008372590855476 0.0
0.1608022352294362 0.4242591696906621 0.0
0.2865399820604418 0.5141369963640697 0.0
0.1962258775846918 0.4008383427744516 0.0
0.6210920174972845 0.5516143721732873 0.0
0.4843009180093644 0.6583977883024127 0.0
0.5695029195102991 0.8267073580550881 0.0
0.9562891163300477 0.7436031251145003 0.0
0.4174190173896447 0.5044019081507806 0.0
0.410860431802698 0.5535781448116232 0.0
0.8709320861791604 0.9002602580953145 0.0
0.427354757192076 0.7399041791280969 0.0
0.7107884943357746 0.7172753954970394 0.0
1.030382288537246 0.8267335242583146 0.0
0.7737440530215844 0.7115751739064536 0.0
0.8042035044852396 0.9123190309183211 0.0
0.0480920891272324 0.2181807374272496 0.0
0.3695079235280397 0.6886893012630373 0.0
0.773516204411121 0.7830673827025234 0.0
0.302776671534508 0.6210168062901616 0.0
0.7150573728414059 0.6149413270404035 0.0
0.5863276441271683 0.769748656022605 0.0
1.143752049005473 0.6780480059671409 0.0
0.6477132714923303 0.7318578097016951 0.0
0.8380052680878572 0.8531154611905379 0.0
0.5966224054445893 0.6051703156405629 0.0
0.3207240819522855 0.5772784374275386 0.0
0.3520131451607586 0.5263918604440553 0.0
0.8573528491808811 0.6709738722470224 0.0
0.1797236573643203 0.460867988842514 0.0
0.5540828191547277 0.6661566975721369 0.0
1.158039843450239 0.7357536542887966 0.0
0.08638006908591334 0.286237566592474 0.0
0.790861820497242 0.6466611559014377 0.0
0.5362079962218838 0.8121454698907893 0.0
0.9405172130232713 0.6862060282668497 0.0
0.6039359324506977 0.711463595189489 0.0
0.4440093493753478 0.6096873538428137 0.0
0.5500746279087338 0.7620941994763282 0.0
0.2578504496023611 0.5739900063885278 0.0
0.502526452350101 0.6209820553182169 0.0
0.6799833858912959 0.7033681517905728 0.0
0.7183487148906835 0.7518430858176317 0.0
0.8006701240044786 0.8118713608014352 0.0
0.1304684854221093 0.3934039266496895 0.0
1.00789495394612 0.7937868725857601 0.0
0.696960396255943 0.893370944718147 0.0
0.8258315165019564 0.7538365084989149 0.0
0.8462950259502577 0.775614153529746 0.0
0.4082018839227037 0.6749460331934272 0.0
0.7025889307788081 0.8378536687159448 0.0
0.4666676520109517 0.6984557076050861 0.0
[...]
POINT_DATA 531

VECTORS Velocity float
0.0000000000000000 1.0000000000000000 0.0
0.0000000000000000 1.0000000000000000 0.0
2.6382755053598537 -0.9591034971389885 0.0
1.8834468859464719 1.0384953790184905 0.0
0.0000000000000000 1.0000000000000000 0.0
0.0000000000000000 1.0000000000000000 0.0
0.0000000000000000 1.0000000000000000 0.0
0.0000000000000000 1.0000000000000000 0.0
0.0000000000000000 1.0000000000000000 0.0
0.0000000000000000 1.0000000000000000 0.0
0.0000000000000000 1.0000000000000000 0.0
0.0000000000000000 1.0000000000000000 0.0
0.0000000000000000 1.0000000000000000 0.0
0.0000000000000000 1.0000000000000000 0.0
0.0000000000000000 1.0000000000000000 0.0
0.0000000000000000 1.0000000000000000 0.0
0.0000000000000000 1.0000000000000000 0.0
0.0000000000000000 1.0000000000000000 0.0
0.0000000000000000 1.0000000000000000 0.0
0.0000000000000000 1.0000000000000000 0.0
0.0000000000000000 0.0000000000000000 0.0
0.0000000000000000 0.0000000000000000 0.0
0.0000000000000000 0.0000000000000000 0.0
0.0000000000000000 0.0000000000000000 0.0
0.0000000000000000 0.0000000000000000 0.0
0.0000000000000000 0.0000000000000000 0.0
0.0000000000000000 0.0000000000000000 0.0
0.0000000000000000 0.0000000000000000 0.0
0.0000000000000000 0.0000000000000000 0.0
0.0000000000000000 0.0000000000000000 0.0
0.0000000000000000 0.0000000000000000 0.0
0.0000000000000000 0.0000000000000000 0.0
0.0000000000000000 0.0000000000000000 0.0
0.0000000000000000 0.0000000000000000 0.0
0.0000000000000000 0.0000000000000000 0.0
0.0000000000000000 0.0000000000000000 0.0
0.0000000000000000 0.0000000000000000 0.0
0.0000000000000000 0.0000000000000000 0.0
0.0000000000000000 0.0000000000000000 0.0
2.6785058996466100 -1.7950480863238087 0.0
3.6718091739687053 -2.3064685900962605 0.0
3.7530847550125466 -2.2250084605717038 0.0
3.7364947571951639 -1.9353795290554940 0.0
3.7313773253624745 -1.6454242387707740 0.0
3.7336907642289976 -1.2834771367312736 0.0
3.7231036099293773 -1.0507479767863626 0.0
3.7228355443737300 -0.7967448546084822 0.0
3.6011823504493528 -0.4698936939387496 0.0
3.5611038007973144 -0.2273960757378393 0.0
3.4686961800192919 0.0141265388179921 0.0
3.3260966163129027 0.2454805305662850 0.0
3.2290023565058181 0.4335538590582800 0.0
3.0240185286499370 0.6140858925270196 0.0
2.5869203765763849 1.0491021548851442 0.0
1.9256188142475428 0.9310181743234590 0.0
0.0000000000000000 0.0000000000000000 0.0
0.0000000000000000 0.0000000000000000 0.0
0.0000000000000000 0.0000000000000000 0.0
0.0000000000000000 0.0000000000000000 0.0
0.0000000000000000 0.0000000000000000 0.0
0.0000000000000000 0.0000000000000000 0.0
0.0000000000000000 0.0000000000000000 0.0
0.0000000000000000 0.0000000000000000 0.0
0.0000000000000000 0.0000000000000000 0.0
0.0000000000000000 0.0000000000000000 0.0
0.0000000000000000 0.0000000000000000 0.0
0.0000000000000000 0.0000000000000000 0.0
0.0000000000000000 0.0000000000000000 0.0
0.0000000000000000 0.0000000000000000 0.0
0.0000000000000000 0.0000000000000000 0.0
0.0000000000000000 0.0000000000000000 0.0
0.0000000000000000 0.0000000000000000 0.0
0.0000000000000000 0.0000000000000000 0.0
0.0000000000000000 0.0000000000000000 0.0
0.0000000000000000 0.0000000000000000 0.0
0.0000000000000000 0.0000000000000000 0.0
0.0000000000000000 0.0000000000000000 0.0
0.0000000000000000 0.0000000000000000 0.0
0.0000000000000000 0.0000000000000000 0.0
0.0000000000000000 0.0000000000000000 0.0
0.0000000000000000 0.0000000000000000 0.0
0.0000000000000000 0.0000000000000000 0.0
0.0000000000000000 0.0000000000000000 0.0
3.5963233999840578 2.4344595596169549 0.0
3.9291093721889707 1.8052780793718961 0.0
3.7935465601326013 1.0151078613680757 0.0
3.7061436054464538 2.1296143004617414 0.0
3.6808364069030266 2.8724516656604702 0.0
3.6445611607013046 0.1705179596058774 0.0
3.8827044136680802 3.4934244583299559 0.0
3.5488106097720657 2.3787691162256941 0.0
3.5416789555680235 1.6182069354183555 0.0
3.5733586200579506 1.7091665625752586 0.0
3.0283448908678108 1.9774703436661596 0.0
3.5739432189526785 1.3013832814038628 0.0
3.3873105996604789 1.7204975001221647 0.0
3.1778980731851516 2.4527983484808433 0.0
3.2590249353390166 2.3628079822399517 0.0
3.2496882554110536 -0.3874835909034974 0.0
3.5916854732824759 3.8792043247927976 0.0
2.6448702283673975 2.1670438657514151 0.0
3.1656158768358127 1.4453549543277506 0.0
3.6370138423507594 0.5156321556566967 0.0
2.8362268396349419 0.4281305240953097 0.0
3.3917827212509351 1.0349243563373167 0.0
2.8363020839627215 2.7198786167116347 0.0
3.4895316077436171 4.5910799008080252 0.0
3.5746701609452156 2.6019660360872203 0.0
2.5727797552680540 1.5159367218594828 0.0
3.9789362590770838 2.0579419287756715 0.0
3.6787471330210693 2.4092955019015752 0.0
3.0044298661024937 -0.7502496272665093 0.0
3.8241495342566671 1.4895987760373046 0.0
2.5860638614491243 2.1868258855606495 0.0
2.7965020015285487 1.0995712006236755 0.0
3.6040271636991181 2.5721524296776801 0.0
2.8553020799983608 1.4659435521735149 0.0
3.7101065020867772 -0.2112613065235150 0.0
2.2382715973062526 1.6200773749180515 0.0
2.6977057316536812 0.7003667924003989 0.0
2.5122379168791338 0.0995383506630868 0.0
3.8206728050113621 2.2631625849615009 0.0
2.8039793004035856 1.7243938169552298 0.0
2.8266566573139160 2.3861254123568925 0.0
2.9353760659849084 4.7379499774550853 0.0
2.6580009313938100 1.4137395207288124 0.0
2.5407967787842631 2.9334473032086792 0.0
2.3588277781428522 1.8018902491584576 0.0
3.2346541697380253 3.4863433599771265 0.0
2.0270887428142115 1.8025997869896622 0.0
3.6583012942102795 0.0757388057683483 0.0
3.4698871875707935 2.3176006825988087 0.0
3.5359196475358621 2.4158523670385468 0.0
3.8609795849884452 1.7495354041902045 0.0
3.7878359620167856 1.7742013000453276 0.0
3.6995765403749710 0.4739231666696186 0.0
3.0168153007768610 1.3912242298405104 0.0
1.6888039820008474 1.7235745328118706 0.0
2.5679817920179104 1.2203100803505773 0.0
2.9435164482595870 -0.9806273537607164 0.0
3.4710242249862904 2.4112258839549177 0.0
3.7808042127141910 1.8824797937129867 0.0
1.8137223161640741 0.1279500285202333 0.0
2.1716667164818273 1.1060874933740985 0.0
3.6897361080411843 3.1659770506331255 0.0
1.3557306619294665 0.5088189794401714 0.0
1.8314950108968597 3.2598459534181785 0.0
1.6909972028871374 1.0022035650878729 0.0
3.6631688263475817 1.2859512983271164 0.0
1.8401428953841270 2.2752659162716271 0.0
1.2233757789608024 0.8502207104592822 0.0
2.0810113841262106 2.3760786633162501 0.0
2.7679535879048238 3.3861040877806072 0.0
3.5838651973293651 1.0718943783186634 0.0
3.4171541766239928 0.6246151420948772 0.0
3.5274435003377196 2.2563616092133261 0.0
3.7009190820282312 -0.9348082403728371 0.0
3.4364285734375999 1.8261230556629406 0.0
3.8787483337589035 1.5233164851250831 0.0
1.8578564024314701 -0.3179780943236108 0.0
1.5885279991150556 1.5823143595980977 0.0
3.3585719678518156 2.6598363617148797 0.0
1.3778613540994777 1.7826418805899360 0.0
3.5049230266298039 2.5919634395348585 0.0
3.6203268967038569 0.9002176017025113 0.0
1.6926825941422212 0.8962194398793161 0.0
1.4235810725264428 1.3943822943616071 0.0
3.7675204874510286 -0.6226826814078621 0.0
1.8279958671335095 1.8693155331652556 0.0
1.7023612217211663 0.9084315563590855 0.0
1.6176764691055878 0.1885177988640857 0.0
3.5885363583802863 2.3482074661696517 0.0
3.5205346426445741 0.2777593742201744 0.0
3.4058594182339132 -0.1574105012300109 0.0
1.5934243349899384 3.1019004617497634 0.0
1.3836162881774432 1.1567154388031380 0.0
3.8989342855565652 1.9585983075453195 0.0
1.4476337822639365 0.8912297007592612 0.0
1.5068202822857582 2.7756610378872741 0.0
3.5816414836098769 2.0406514614157993 0.0
1.5783893923390568 -0.2528322287255452 0.0
3.5882114030130992 0.8045302131877821 0.0
3.1590723301425432 2.6012145965980147 0.0
2.7021744744113705 -1.3735135449027487 0.0
3.7143274246380571 2.3690405925144691 0.0
3.4605869054330753 1.8148799293361897 0.0
3.6995452025814575 0.2729327386696527 0.0
1.9999943021149884 3.0554229911080926 0.0
3.5941420782478062 3.6959760534054995 0.0
2.4436996775822930 4.0338067937120679 0.0
0.9558973194872494 0.9088598755414463 0.0
3.5305417791192477 2.4865845992201221 0.0
1.2632461407628801 0.6667330612114019 0.0
3.2766573971565522 0.3158364022610592 0.0
2.1093186013280865 2.1662917034445051 0.0
3.5287048049526195 2.7494788494169744 0.0
2.9621602515621435 0.9648558628535864 0.0
0.9719514101561134 0.7166159490252200 0.0
3.9314107619856213 1.8562743723267483 0.0
3.6814200572010707 -0.1793342047899499 0.0
3.6390488477676231 1.5021517811597720 0.0
2.3857344367070210 1.5167438241525508 0.0
0.7641784576586397 3.4574473382378459 0.0
1.0770113244417951 0.9554522539066029 0.0
3.8749486661791437 1.6577300045048087 0.0
1.3416854662891100 1.0890490707120515 0.0
1.3320085828996713 0.5194110184469223 0.0
3.3080143067021419 1.9591140451212457 0.0
1.5248416631011303 -0.2888641014619352 0.0
3.8963355747811188 2.1997823195389636 0.0
3.4893238229302068 1.4031438140302488 0.0
3.1497201895450111 2.2546813541445889 0.0
2.9335229257916100 3.0536093410081886 0.0
3.8576689450405515 3.2342625626151769 0.0
1.2090911425441973 0.3586215856662151 0.0
1.7247430969396025 2.4117131185195486 0.0
3.6574408197723458 2.4022036969690337 0.0
3.6490707216103933 -1.2372107864998090 0.0
1.2131421577175778 3.3076085929212447 0.0
1.3599160160048129 0.5428111335253717 0.0
1.1338014707732640 0.4528267018683174 0.0
1.1798808564632888 0.0652413661727674 0.0
3.7726418770899128 2.2847130759689107 0.0
3.6138795818428524 2.7289857008177707 0.0
2.9759221987838225 1.7973224431071031 0.0
1.0558582671937680 1.5276436369254294 0.0
3.5974314987672629 2.4739044660728129 0.0
3.8731764203004864 2.1408119880749688 0.0
3.9666901068493230 1.8968905296345204 0.0
3.7412885715756934 1.5647601517655541 0.0
1.6338608953143694 2.3197061013426556 0.0
3.7219778993312622 0.0172915383710328 0.0
1.4183902606236718 0.6819218409485210 0.0
3.8040137033467620 1.3658082805434377 0.0
3.7887582253403034 1.2344730213740684 0.0
2.6568846819445815 1.9466698711753339 0.0
3.2601509854505601 1.5276762609363201 0.0
3.1354961848967688 2.1991266411646935 0.0
3.1353266527307024 2.0093989344353562 0.0
3.4599706939438528 1.6540966056431643 0.0
3.8553991887714791 2.0836212708959390 0.0
1.3333927996961170 0.1962039025537595 0.0
2.9527365393629865 2.0879893575554576 0.0
2.8422012452909993 0.9413327458559437 0.0
2.9200501033859378 2.0952691411112840 0.0
2.8855791842502452 0.0288021434289095 0.0
3.7627181094727145 -0.4109726133765808 0.0
0.9535482953185525 0.9868137648706286 0.0
2.3183528415264143 -1.0713596201154667 0.0
3.6594289895058747 2.4026242277256680 0.0
2.9621645841483866 1.5217299313691299 0.0
3.1198515826228457 1.6433190279734853 0.0
3.4791337024284368 3.9906115861691340 0.0
0.6256164050073014 1.6489344405184918 0.0
3.5604228332862924 2.5423221438884838 0.0
1.5224045163295030 1.8304405815664282 0.0
3.0783701309349989 -0.5902133561394352 0.0
3.7331666032716098 0.7653739547423623 0.0
3.4213073973966850 2.3587860879176028 0.0
0.7578139571285064 0.6044238196753274 0.0
1.1795475280284262 2.2319540002497282 0.0
3.1267270945520060 2.8066092673527061 0.0
1.7155079437247538 2.9241450200942904 0.0
1.0444173154874059 1.8770373409108061 0.0
0.9412191178699000 1.5876742863119246 0.0
1.6642778652212293 3.0814610633591180 0.0
1.5750783670868218 1.2183362877463864 0.0
2.1899033349943338 -1.4154060111102362 0.0
2.3158879935223835 1.7869927663532577 0.0
0.8078844092215732 0.3474166291839639 0.0
0.8652568608382918 0.6573806263182316 0.0
3.8533122904828616 3.4479132224010796 0.0
1.4002431343374442 -0.0663537284367122 0.0
3.1211714483913489 0.7753102402462494 0.0
3.5711439570592471 0.0489765466753495 0.0
3.6837103833437119 2.2983436249193492 0.0
1.1250727351638925 3.3292140019158816 0.0
3.0129979374248648 0.7346844675618359 0.0
0.7112768798582310 0.4359447725795417 0.0
3.5852686789544372 -0.2597240092421369 0.0
3.5044872919387720 2.6269875258656401 0.0
0.9578627340051287 -0.0067409350383380 0.0
2.9354196232422165 -0.1688858685264880 0.0
2.9654579452391499 1.6183149438629125 0.0
3.6833523035720384 -1.6221706890335130 0.0
1.0300917174009276 0.1257756430179420 0.0
2.7646572827475788 1.6801528888375394 0.0
2.9347878271871783 2.3053974872468581 0.0
2.4021930431643885 1.9093589901169743 0.0
3.6126586149621129 2.4193988191577422 0.0
3.7494022855213620 1.8048304593876519 0.0
2.8337270847381544 1.1386988279839076 0.0
3.6644469878659751 3.7880386081369806 0.0
3.8820995846858986 1.8233121415930671 0.0
1.0822731345698884 0.6657808806452779 0.0
3.1401952206396371 3.2854807675930386 0.0
2.9424017107205560 1.6824023806283659 0.0
3.9099167902301564 1.9197815192682408 0.0
3.9123020186397386 1.7193286714936460 0.0
3.1176131484860043 2.2797966220673040 0.0
3.5324854675829735 2.4191400559406708 0.0
1.3055424921511984 -0.7621276396227072 0.0
3.5774742818435108 0.6573811763104253 0.0
3.6194389976958186 0.2527767928983262 0.0
1.6701571348283604 4.0683610764062621 0.0
2.4400166302180115 2.0156043830595114 0.0
0.7962989952092600 0.6154319927300187 0.0
3.6205535648478309 2.4218988711655181 0.0
3.9189916540363541 1.8146966339633632 0.0
3.7893444724744918 1.0492991398934357 0.0
3.6542099517022955 2.0976392481747870 0.0
3.6952881928833041 2.8410178613339001 0.0
3.6463146095726371 0.2002346526731680 0.0
3.8928237907777197 3.4732007185238922 0.0
3.6117873468278461 2.4186441388702660 0.0
3.4675593113948255 1.6369012167457231 0.0
3.6511242391178560 1.7543628832028575 0.0
2.9564173350205705 1.9216175534529092 0.0
3.6461279815756056 1.3345279670733969 0.0
3.3034425685698232 1.6832093121808682 0.0
3.1297115988782109 2.3958226396818896 0.0
3.3316281495609292 2.3623391294805445 0.0
3.2529117672951098 -0.3772361698873128 0.0
3.5958004096721492 3.8703853709550278 0.0
2.7217661719084907 2.1984457759792333 0.0
3.0800622600073617 1.4242796682071366 0.0
3.5963088225330071 0.5459721607230006 0.0
2.8885395065063100 0.4500908310711433 0.0
3.3290947221816740 1.0590807114513019 0.0
2.8172043536625684 2.6811014445029890 0.0
3.4908251763072986 4.5896379640901532 0.0
3.6160344789837988 2.5981395856672758 0.0
2.4919456410294694 1.4686029040789441 0.0
3.9801112988398306 2.0628472552874970 0.0
3.6700863832441599 2.3939129722348707 0.0
3.0049176479883011 -0.7491511648992217 0.0
3.8158558086477341 1.5191316079082655 0.0
2.5476967206827039 2.1361952891118983 0.0
2.8809331567142138 1.1343561777396167 0.0
3.6222149602508447 2.5453446735404190 0.0
2.9440352897180313 1.5136739438861468 0.0
3.6974327538649172 -0.1915035444569653 0.0
2.1719215322160403 1.5706781283008102 0.0
2.7716495495287417 0.7225091354086665 0.0
2.5336212658122812 0.1129514226549255 0.0
3.8538265398515792 2.2834189199314134 0.0
2.7311759654581165 1.7197218913007903 0.0
2.8898863190769304 2.3900803400840123 0.0
2.9354534065122211 4.7378159534716735 0.0
2.5768263202281041 1.3719143468040800 0.0
2.5366220285940928 2.9180029779307786 0.0
2.4364972934879829 1.8569753224447687 0.0
3.2517324115932609 3.4882735500906872 0.0
2.1000360890023155 1.8153695109799681 0.0
3.6277525996945474 0.1005819751500189 0.0
3.4167096130144241 2.2678880577856617 0.0
3.5856832011053617 2.4287422979404165 0.0
3.9157541273956182 1.7765007090669855 0.0
3.7267109420630078 1.7802910564505543 0.0
3.6914368759092588 0.5049178185594296 0.0
2.9611958344793754 1.4022282660458112 0.0
1.6760566127178933 1.7049502633065299 0.0
2.4874265572603012 1.1861750234241657 0.0
2.9435572039590374 -0.9800460721939742 0.0
3.5242780774483036 2.4171941384771096 0.0
3.7129867739546625 1.8584733593012137 0.0
1.8520648672881985 0.1435505404512435 0.0
2.2466441038434688 1.1418114174099900 0.0
3.7013351420824927 3.1395953296807484 0.0
1.4127510899574747 0.5293389754297458 0.0
1.8314878423490826 3.2598473421548388 0.0
1.6318871472472045 0.9639295866597006 0.0
3.6163701691785022 1.3170036422928746 0.0
1.8392616690182877 2.2709752204088320 0.0
1.1844834830462720 0.8178395332177646 0.0
2.1081393614639423 2.3772152301188809 0.0
2.7740972325506648 3.3851102502633652 0.0
3.6355831512691861 1.1049358313346433 0.0
3.3739666581515961 0.6451615220974823 0.0
3.4738102348312294 2.2121230511392453 0.0
3.7000536258344043 -0.9316879522365654 0.0
3.3564514582620353 1.7863449738383188 0.0
3.9138986513853191 1.5500699058171001 0.0
1.8607489077118031 -0.3155676130305052 0.0
1.6469228301683432 1.6083515751023845 0.0
3.3373961252719693 2.6111303804359864 0.0
1.4300709261593250 1.7885643626558625 0.0
3.5566777769250395 2.5776714647897361 0.0
3.5730999818455920 0.9356262320181322 0.0
1.6297257059958825 0.8646165007348841 0.0
1.3982478920000327 1.3615775636333884 0.0
3.7637901349283154 -0.6131404960477917 0.0
1.8256557112855980 1.8612354181469892 0.0
1.6497142089320769 0.8978202441985598 0.0
1.6679632905739983 0.2018704373188679 0.0
3.5440735459976609 2.3088606123444961 0.0
3.4901882087613720 0.2950866560276125 0.0
3.4112876825352929 -0.1323736364482312 0.0
1.5934063489913786 3.1019099678376780 0.0
1.3301908913210101 1.1127342143282661 0.0
3.8506751428007320 1.9430086493787637 0.0
1.5105993832324442 0.9288495079762733 0.0
1.5161944189491363 2.7783335965468043 0.0
3.6576695030424964 2.0834199617464457 0.0
1.5877784121783165 -0.2469700834467156 0.0
3.6185756840127303 0.8369877026625199 0.0
3.1413256272195094 2.5511929323437248 0.0
2.7021529656362930 -1.3736216807569526 0.0
3.7439693584613294 2.3828303892669327 0.0
3.3771610457741170 1.8106862170309881 0.0
3.6757100367109223 0.3002465954543612 0.0
2.0002322758121109 3.0549498637472956 0.0
3.6022602853377816 3.6847776365049958 0.0
2.4441983327253207 4.0336103583594696 0.0
0.9995905006935312 0.9457564871442350 0.0
3.5114745171742716 2.4463441682661258 0.0
1.2097584860325916 0.6390715182588776 0.0
3.3069860646536591 0.3417978354279985 0.0
2.1533221647466636 2.1708310047245027 0.0
3.5762685802396650 2.7369041551981166 0.0
2.9214571342941040 0.9800444215482583 0.0
0.9336883816969908 0.6867445158571654 0.0
3.9791020851571455 1.8851415242803371 0.0
3.6631936694909348 -0.1652937149476874 0.0
3.7114062524928562 1.5357376305054007 0.0
2.3429561078863759 1.5187553506952096 0.0
0.7641784576586396 3.4574473382378468 0.0
1.0458005668549215 0.9236282439777977 0.0
3.8595704029360629 1.6749348770436818 0.0
1.3259422598742920 1.0679934641071391 0.0
1.3939962693103221 0.5469285985563251 0.0
3.2282500469845550 1.9121188187627653 0.0
1.5253661329949446 -0.2887101232693322 0.0
3.8918103546907337 2.2002899748225473 0.0
3.4142240695198778 1.4259803766071355 0.0
3.2271397936496951 2.2967650105033344 0.0
2.9201961250327448 3.0219614885522681 0.0
3.8895441056982278 3.2277278289064979 0.0
1.2612112299971419 0.3739726568925822 0.0
1.7247368903334948 2.4101305614852233 0.0
3.6632665473374684 2.3904752759119758 0.0
3.6491165342411800 -1.2362916064169163 0.0
1.2131401874340595 3.3076093193930047 0.0
1.4181243604089033 0.5669296020442053 0.0
1.0811600884810846 0.4294070286542054 0.0
1.2220437906585124 0.0729104261873980 0.0
3.7622531198674602 2.2690631769766849 0.0
3.6339342674033488 2.6952261820212913 0.0
2.8984778689999358 1.7456417577518122 0.0
1.0478736801003421 1.5124817868086153 0.0
3.6236893761343563 2.4549406530332902 0.0
3.9157078171030815 2.1673207643093262 0.0
3.9752008985171394 1.9066864964629271 0.0
3.6930269948110634 1.5850138521224957 0.0
1.6339125387351172 2.3197100444641370 0.0
3.7052051672995816 0.0462698149684394 0.0
1.3670263644474030 0.6622753849512996 0.0
3.8357054754507782 1.3967658006815471 0.0
3.7903244326252037 1.2714998430283539 0.0
2.6092357294546806 1.8950043473754181 0.0
3.1750342236414792 1.5017561487320379 0.0
3.0776127352225435 2.1451853843450643 0.0
3.2224694455125897 2.0620361466313035 0.0
3.5437650694983538 1.6903403115448918 0.0
3.8009800748750071 2.0636992383933634 0.0
1.3604727613074097 0.2047038321134712 0.0
3.0326706402400188 2.0990173265794110 0.0
2.9239449733006317 0.9739146198431685 0.0
2.8512677885033590 2.0445133984236845 0.0
2.9139323242121864 0.0507884485308330 0.0
3.7533747657870293 -0.4017600573221173 0.0
0.9486468327910210 0.9778058328809889 0.0
2.3183022958127624 -1.0714063550033288 0.0
3.6941935585867043 2.4147276290588389 0.0