# vtk DataFile Version 3.0
LucasCarvalhoTCC Results
ASCII

DATASET POLYDATA
FIELD FieldData 1
TIME 1 1 double
4.4

POINTS 531 float
0.02430399999999999 0.16425 0.0
0.5913384 0.481878 0.0
1.30475 0.591832 0.0
0.774126 0.951272 0.0
0.04779564148251592 0.1966194329439859 0.0
0.0726092153537953 0.2279866320496896 0.0
0.09876577335895967 0.2582426022760065 0.0
0.1262817198684718 0.2872673048853742 0.0
0.1551671626852806 0.3149288071400502 0.0
0.1854238368919928 0.3410826624766006 0.0
0.2170424591499632 0.3655716640299072 0.0
0.2499995164635996 0.3882263409476824 0.0
0.2842534387828506 0.4088665906889567 0.0
0.3197403359862048 0.4273050841371062 0.0
0.3563695945475563 0.4433531534921038 0.0
0.3940201673622058 0.4568300511916809 0.0
0.4325386107291805 0.4675762214989666 0.0
0.4717406913237268 0.4754709112408955 0.0
0.5114182513144845 0.480453442081874 0.0
0.5513531678859215 0.4825464217651069 0.0
0.6182637923774223 0.5096055604109244 0.0
0.647389101376845 0.5350126187545199 0.0
0.6784752958296183 0.5579802184492302 0.0
0.7112421079139344 0.5784810076698811 0.0
0.7454110434104482 0.5965507527581431 0.0
0.7807301979183381 0.6122562812860965 0.0
0.8169827939052532 0.6256694297140926 0.0
0.853985522124928 0.6368498290413532 0.0
0.8915818964261243 0.6458353363890481 0.0
0.9296339776508085 0.6526379336565091 0.0
0.9680139759519513 0.6572432424840469 0.0
1.006596418266983 0.659612648128084 0.0
1.045251165872634 0.6596877658251245 0.0
1.083837680945672 0.657397570658483 0.0
1.122201320191055 0.6526688455666412 0.0
1.160173053543044 0.6454405726452737 0.0
1.197574286953346 0.6356824063786186 0.0
1.23422961949795 0.6234159704281613 0.0
1.26998758503999 0.6087366500005643 0.0
1.285086682927543 0.6256533177085738 0.0
1.263669745906668 0.6583917156018083 0.0
1.240480125919214 0.6898988493917133 0.0
1.215532715641304 0.7200329197235763 0.0
1.188869833862339 0.7486599839005789 0.0
1.160556835593143 0.7756559317113654 0.0
1.130680194163798 0.8009104211039757 0.0
1.099347083827048 0.8243335727704395 0.0
1.066684425336412 0.8458643604021228 0.0
1.03283497048792 0.8654772531176074 0.0
0.9979492572630678 0.8831824104874066 0.0
0.9621749986495024 0.8990166556695112 0.0
0.9256475378616493 0.9130272060048579 0.0
0.8884846540507749 0.9252538945090274 0.0
0.8507866567183312 0.935715378288671 0.0
0.8126405010322847 0.9444016349017643 0.0
0.7365055179612304 0.9396161853607135 0.0
0.699310855231089 0.9266666891603924 0.0
0.6626179171945521 0.9123577070090924 0.0
0.6264901449910028 0.8966765244755546 0.0
0.5909789825447118 0.8796450886595113 0.0
0.556124897941028 0.8613059841617771 0.0
0.5219601957009091 0.8417124664434518 0.0
0.4885110616878257 0.8209207172498462 0.0
0.4558007060429968 0.7989848675704875 0.0
0.4238520247653796 0.775953675763176 0.0
0.3926900138417566 0.7518687036338616 0.0
0.3623437622133722 0.7267636709390595 0.0
0.3328479550295906 0.7006647540504483 0.0
0.3042438201183181 0.6735915983461908 0.0
0.2765795358619001 0.6455588748284606 0.0
0.2499101143933102 0.6165781952942546 0.0
0.2242967982692083 0.5866601984136335 0.0
0.1998060807431611 0.5558166834807132 0.0
0.1765083808984156 0.5240625786010467 0.0
0.154476512720734 0.491417660368959 0.0
0.133784033184808 0.457907916333494 0.0
0.114503564227142 0.4235664945146766 0.0
0.09670517293008124 0.3884342245925089 0.0
0.0804548910754031 0.3525597611689231 0.0
0.06581337946329963 0.3159993090744527 0.0
0.05283482490365372 0.2788161107032479 0.0
0.0415660226296666 0.2410796291505872 0.0
0.03204569406625649 0.2028646095712164 0.0
0.5272009874003867 0.6419624505772817 0.0
0.7421848286576707 0.7716726266421574 0.0
0.8789503364783713 0.7829234141383637 0.0
0.6149390992905563 0.7449438030688011 0.0
0.4064556042659638 0.5942834991165423 0.0
0.9875021850865396 0.7666507358101158 0.0
0.3188065960661005 0.539594034984892 0.0
0.61365100263957 0.6399487878797632 0.0
0.8049090660915541 0.8464379870891131 0.0
0.7099820328572021 0.6828840522539854 0.0
0.5239467234991928 0.7406922291088611 0.0
0.8154056325591208 0.7211774015928547 0.0
0.6676178829014909 0.8152713180209475 0.0
0.4416080359619968 0.674360953773491 0.0
0.489443615375965 0.5654986742123573 0.0
1.076665773779852 0.7387182918829318 0.0
0.250390543112057 0.4877450112830265 0.0
0.5736819937919005 0.5790366884881447 0.0
0.7263706755366466 0.8615301097563091 0.0
0.940143307772686 0.8233944909985552 0.0
0.927065543677544 0.7236459161626674 0.0
0.8744389806957806 0.8609114380468947 0.0
0.336888362650554 0.6081958070931937 0.0
0.2030757334857187 0.4383942902513459 0.0
0.3861483329720647 0.5255533415902591 0.0
0.5621001921466506 0.7923778419149285 0.0
0.6822897332295245 0.7428043323059399 0.0
0.5764061681675353 0.6881266532454204 0.0
1.129195449682892 0.7163224153578123 0.0
0.8157794419559141 0.7831214907157077 0.0
0.3806644703311284 0.6554275822782399 0.0
0.7695737871052837 0.669593045341503 0.0
0.4699375460410929 0.6217118815516158 0.0
0.6830867370872363 0.630350317562806 0.0
1.040416897214502 0.7929392348941093 0.0
0.4604428393605979 0.7321209818568342 0.0
0.8729552856459739 0.7015083313474691 0.0
1.017010765275644 0.7166925631396708 0.0
0.6458785458483771 0.6946878992565794 0.0
0.7733575582969163 0.8941098392103913 0.0
0.4457537579383052 0.5273353624588528 0.0
0.163830623786951 0.3903175742448083 0.0
0.6095823984734953 0.8256600013628639 0.0
0.2618074352614998 0.5435604438425528 0.0
0.6287880420949764 0.5875838132975476 0.0
0.3100402147222924 0.4835410260423071 0.0
0.5422177893302824 0.5343158927797464 0.0
0.9964262112680041 0.8213447667248638 0.0
0.4971609598823845 0.6906859160718212 0.0
0.5740517260168769 0.633982031239429 0.0
0.7423299505107201 0.7218768583704394 0.0
0.767147744476665 0.819658485932403 0.0
0.9427329070375209 0.7774595780066723 0.0
0.8375285793481674 0.8869398470561132 0.0
0.2879426409425497 0.5872676364411625 0.0
0.6797562629663748 0.8647676397847667 0.0
1.171674168522591 0.6949964056806914 0.0
0.5261010885606964 0.6055079299963303 0.0
0.7081534744446967 0.8078672678314597 0.0
0.9681672688626206 0.705385299758921 0.0
0.7364069054947873 0.6432919177737106 0.0
0.363826821075015 0.5678764295233764 0.0
0.826170216989844 0.6605791783255148 0.0
0.1284439337099834 0.3602715082199688 0.0
0.518140828090112 0.783905985497134 0.0
0.8452908336054504 0.8167586152211004 0.0
0.2015204468558833 0.492088055688788 0.0
0.4005883523205732 0.7121294304856254 0.0
0.3551392316798573 0.4864133323669936 0.0
0.2501727034998737 0.4443035857235296 0.0
0.857938396055507 0.7390317828783199 0.0
0.9245301815433076 0.8668102132501951 0.0
0.5702050292970205 0.7323438487067678 0.0
1.111607633075016 0.759318252473435 0.0
0.6317193755596126 0.7853891653733797 0.0
0.7921381265818805 0.7497379312370454 0.0
1.088942426366261 0.7015435214091311 0.0
0.5818207607488639 0.5352340257544296 0.0
0.4203532416309484 0.6369649631143086 0.0
0.4854818714173937 0.5131439318707094 0.0
0.4475429831528036 0.5690430472086269 0.0
0.8968753306595262 0.8225547516037004 0.0
0.6339557898063448 0.8543470494763272 0.0
0.3416564411796998 0.6516449771136894 0.0
1.082970576264455 0.7856036465430698 0.0
0.2255204648032354 0.5229464838393291 0.0
0.7335043541589261 0.9012744999286941 0.0
0.9097052989734319 0.6921177492721042 0.0
0.5363428275528405 0.6992389299864537 0.0
0.9657777897300287 0.8588269742066746 0.0
1.025947476617909 0.7556651119714124 0.0
0.1090829970454354 0.3226173037985549 0.0
0.4836644525169279 0.7663103281018557 0.0
0.6910856326166581 0.777867529208468 0.0
0.6694391877434097 0.5946719355048008 0.0
0.2954883530575775 0.4501042133334518 0.0
0.6746032498128595 0.6643957640016517 0.0
1.054636636429828 0.6974583960183274 0.0
0.8939255235163368 0.7470597914537064 0.0
0.3749741568555516 0.6190655430398917 0.0
1.204101441114554 0.6801433534918062 0.0
0.6130053345415899 0.6785345531932346 0.0
0.7679719108452487 0.8562682874000032 0.0
0.9710820219997449 0.8008372590855476 0.0
0.1608022352294362 0.4242591696906621 0.0
0.2865399820604418 0.5141369963640697 0.0
0.1962258775846918 0.4008383427744516 0.0
0.6210920174972845 0.5516143721732873 0.0
0.4843009180093644 0.6583977883024127 0.0
0.5695029195102991 0.8267073580550881 0.0
0.9562891163300477 0.7436031251145003 0.0
0.4174190173896447 0.5044019081507806 0.0
0.410860431802698 0.5535781448116232 0.0
0.8709320861791604 0.9002602580953145 0.0
0.427354757192076 0.7399041791280969 0.0
0.7107884943357746 0.7172753954970394 0.0
1.030382288537246 0.8267335242583146 0.0
0.7737440530215844 0.7115751739064536 0.0
0.8042035044852396 0.9123190309183211 0.0
0.0480920891272324 0.2181807374272496 0.0
0.3695079235280397 0.6886893012630373 0.0
0.773516204411121 0.7830673827025234 0.0
0.302776671534508 0.6210168062901616 0.0
0.7150573728414059 0.6149413270404035 0.0
0.5863276441271683 0.769748656022605 0.0
1.143752049005473 0.6780480059671409 0.0
0.6477132714923303 0.7318578097016951 0.0
0.8380052680878572 0.8531154611905379 0.0
0.5966224054445893 0.6051703156405629 0.0
0.3207240819522855 0.5772784374275386 0.0
0.3520131451607586 0.5263918604440553 0.0
0.8573528491808811 0.6709738722470224 0.0
0.1797236573643203 0.460867988842514 0.0
0.5540828191547277 0.6661566975721369 0.0
1.158039843450239 0.7357536542887966 0.0
0.08638006908591334 0.286237566592474 0.0
0.790861820497242 0.6466611559014377 0.0
0.5362079962218838 0.8121454698907893 0.0
0.9405172130232713 0.6862060282668497 0.0
0.6039359324506977 0.711463595189489 0.0
0.4440093493753478 0.6096873538428137 0.0
0.5500746279087338 0.7620941994763282 0.0
0.2578504496023611 0.5739900063885278 0.0
0.502526452350101 0.6209820553182169 0.0
0.6799833858912959 0.7033681517905728 0.0
0.7183487148906835 0.7518430858176317 0.0
0.8006701240044786 0.8118713608014352 0.0
0.1304684854221093 0.3934039266496895 0.0
1.00789495394612 0.7937868725857601 0.0
0.696960396255943 0.893370944718147 0.0
0.8258315165019564 0.7538365084989149 0.0
0.8462950259502577 0.775614153529746 0.0
0.4082018839227037 0.6749460331934272 0.0
0.7025889307788081 0.8378536687159448 0.0
0.4666676520109517 0.6984557076050861 0.0
[...]
POINT_DATA 531

VECTORS Velocity float
0.0000000000000000 1.0000000000000000 0.0
0.0000000000000000 1.0000000000000000 0.0
2.6381858694150528 -0.9593335466179534 0.0
1.7794507861598867 1.0217213264319636 0.0
0.0000000000000000 1.0000000000000000 0.0
0.0000000000000000 1.0000000000000000 0.0
0.0000000000000000 1.0000000000000000 0.0
0.0000000000000000 1.0000000000000000 0.0
0.0000000000000000 1.0000000000000000 0.0
0.0000000000000000 1.0000000000000000 0.0
0.0000000000000000 1.0000000000000000 0.0
0.0000000000000000 1.0000000000000000 0.0
0.0000000000000000 1.0000000000000000 0.0
0.0000000000000000 1.0000000000000000 0.0
0.0000000000000000 1.0000000000000000 0.0
0.0000000000000000 1.0000000000000000 0.0
0.0000000000000000 1.0000000000000000 0.0
0.0000000000000000 1.0000000000000000 0.0
0.0000000000000000 1.0000000000000000 0.0
0.0000000000000000 1.0000000000000000 0.0
0.0000000000000000 0.0000000000000000 0.0
0.0000000000000000 0.0000000000000000 0.0
0.0000000000000000 0.0000000000000000 0.0
0.0000000000000000 0.0000000000000000 0.0
0.0000000000000000 0.0000000000000000 0.0
0.0000000000000000 0.0000000000000000 0.0
0.0000000000000000 0.0000000000000000 0.0
0.0000000000000000 0.0000000000000000 0.0
0.0000000000000000 0.0000000000000000 0.0
0.0000000000000000 0.0000000000000000 0.0
0.0000000000000000 0.0000000000000000 0.0
0.0000000000000000 0.0000000000000000 0.0
0.0000000000000000 0.0000000000000000 0.0
0.0000000000000000 0.0000000000000000 0.0
0.0000000000000000 0.0000000000000000 0.0
0.0000000000000000 0.0000000000000000 0.0
0.0000000000000000 0.0000000000000000 0.0
0.0000000000000000 0.0000000000000000 0.0
0.0000000000000000 0.0000000000000000 0.0
2.6782997990241086 -1.7943025952121949 0.0
3.6707862998258394 -2.3037072542822439 0.0
3.7614524701956058 -2.2274670784552768 0.0
3.7619841533842919 -1.9747762951311549 0.0
3.8502123082718218 -1.7586007518229376 0.0
3.9474994062020872 -1.4543452697623718 0.0
4.0016560629546492 -1.2947416244427914 0.0
4.1156735016812913 -1.0650256955535824 0.0
4.0824602574436435 -0.7625577691367237 0.0
4.0574803743336014 -0.4960368383342170 0.0
3.9210660268131501 -0.2043125653092295 0.0
3.7033011779245300 0.0879409852442705 0.0
3.5216794970078285 0.3157863191204761 0.0
3.1753763321886401 0.5557596427660251 0.0
2.5737715084387243 1.0890403643011026 0.0
1.7548361153695529 0.9463125028851302 0.0
0.0000000000000000 0.0000000000000000 0.0
0.0000000000000000 0.0000000000000000 0.0
0.0000000000000000 0.0000000000000000 0.0
0.0000000000000000 0.0000000000000000 0.0
0.0000000000000000 0.0000000000000000 0.0
0.0000000000000000 0.0000000000000000 0.0
0.0000000000000000 0.0000000000000000 0.0
0.0000000000000000 0.0000000000000000 0.0
0.0000000000000000 0.0000000000000000 0.0
0.0000000000000000 0.0000000000000000 0.0
0.0000000000000000 0.0000000000000000 0.0
0.0000000000000000 0.0000000000000000 0.0
0.0000000000000000 0.0000000000000000 0.0
0.0000000000000000 0.0000000000000000 0.0
0.0000000000000000 0.0000000000000000 0.0
0.0000000000000000 0.0000000000000000 0.0
0.0000000000000000 0.0000000000000000 0.0
0.0000000000000000 0.0000000000000000 0.0
0.0000000000000000 0.0000000000000000 0.0
0.0000000000000000 0.0000000000000000 0.0
0.0000000000000000 0.0000000000000000 0.0
0.0000000000000000 0.0000000000000000 0.0
0.0000000000000000 0.0000000000000000 0.0
0.0000000000000000 0.0000000000000000 0.0
0.0000000000000000 0.0000000000000000 0.0
0.0000000000000000 0.0000000000000000 0.0
0.0000000000000000 0.0000000000000000 0.0
0.0000000000000000 0.0000000000000000 0.0
3.9669088370512369 2.5999960501029742 0.0
4.2781821597222631 2.1079826500698613 0.0
3.9195101403349799 1.1603862499158089 0.0
3.8372727898057000 2.2080867935903168 0.0
3.8140109159091993 2.9214481775111216 0.0
3.4737169529251828 0.0986234752140224 0.0
3.9071295626102645 3.4798261496375860 0.0
3.7492015774557430 2.4412724713007385 0.0
3.7292431622061106 1.9111543959147392 0.0
3.5681803768049702 1.7223363577092199 0.0
2.8588192430689081 1.8221973734004162 0.0
3.3849241143298943 1.3602069903044378 0.0
3.2425029083440977 1.6726073985912679 0.0
3.1636877227940339 2.3573300743242451 0.0
3.2646224818362231 2.5015082224877587 0.0
3.0450612710475595 -0.4813952233846516 0.0
3.6096463430962400 3.8492479257258685 0.0
2.5042540214551812 2.1172362946942971 0.0
2.9314715520937122 1.4022526960956085 0.0
3.8958665252820128 0.5455504119750951 0.0
2.3972744508221990 0.3743179825719019 0.0
3.6384233176303082 1.2094623082046714 0.0
2.8006443008331989 2.6368794535524698 0.0
3.4917187035618134 4.5879950275506829 0.0
3.6273963248270671 2.6431741814748406 0.0
2.2884852494865773 1.3462933962617500 0.0
4.3194405480950557 2.3230610844369117 0.0
3.9957245626242233 2.5815429285881653 0.0
2.8623647023914631 -0.7889143121858625 0.0
4.1088527847242959 1.7659416681414450 0.0
2.5206394770261102 2.0427612269666637 0.0
2.5561456332331689 1.0620646640040032 0.0
3.9129111023452783 2.7267736623684034 0.0
2.7030364731074714 1.3450566166388751 0.0
3.8202794720613937 -0.3887364163755835 0.0
1.9917128114479896 1.4530019404951475 0.0
2.2886890363599455 0.6211505353604921 0.0
2.1354937737616337 0.0528212590941454 0.0
4.1440293434557747 2.4617002550332256 0.0
2.6175072567582900 1.7030766295929312 0.0
2.7987060016636027 2.4520095466477363 0.0
2.9347402964180471 4.7381331968734308 0.0
2.3926674058047386 1.2768051873405692 0.0
2.5248448318530743 2.8808094634290251 0.0
2.1708435239500732 1.6473351600477337 0.0
3.2850582137263622 3.5022331631006978 0.0
1.8211981961547321 1.7693415166340154 0.0
3.9504061136325386 -0.0549786122244552 0.0
3.5035254694739493 2.2844363069561497 0.0
3.8494522308126626 2.5659136254973589 0.0
3.9883328835652838 1.9638833018783282 0.0
4.0361382852150252 2.0609294212398459 0.0
3.6575640896489885 0.4654932024019040 0.0
3.0805679671767483 1.5707283071445008 0.0
1.6459960512193379 1.6787918719127524 0.0
2.2778405141197031 1.0798452683060920 0.0
2.8688699212133422 -1.0438047932826204 0.0
3.7060230332068649 2.5536836846162632 0.0
3.8894417191747905 1.9720171451282096 0.0
1.4663821831041899 0.0821148317665318 0.0
2.0128188463490275 1.0835006207315570 0.0
3.7330924844659297 3.1712478812881804 0.0
1.1333860056583449 0.4467060308875651 0.0
1.8313787845988860 3.2599865842065627 0.0
1.4969157514832347 0.8696381197268488 0.0
3.9646745443932954 1.5397700509886387 0.0
1.8405347298415102 2.2639738868408061 0.0
1.1012373124312460 0.7346145162412188 0.0
2.1206836500067783 2.3899425477294525 0.0
2.7845881667899328 3.3821592825773337 0.0
3.3783630338017536 1.0877337009925341 0.0
3.7533135075382824 0.6609191249529031 0.0
3.5861520669473310 2.2433104420288443 0.0
3.7618014166298668 -1.1087078083460533 0.0
3.3173851745503189 1.7838890307042945 0.0
4.0298531111829012 1.7561119915419636 0.0
1.6569398032888767 -0.3294975002872831 0.0
1.4142347266148001 1.5112216415583528 0.0
3.4444821714424383 2.6003210125939566 0.0
1.2855522993423849 1.8000490233398270 0.0
3.5962862853955957 2.7410216026829626 0.0
3.8993269657856566 1.0665849397292253 0.0
1.4892291036395933 0.7884624767687989 0.0
1.3724443079184838 1.3113407491119926 0.0
3.9077135522333921 -0.8907490186630416 0.0
1.8247515469280899 1.8427063109521167 0.0
1.5247936038718617 0.8473078287062289 0.0
1.2964200304545086 0.1598199902382433 0.0
3.7096659882129881 2.3713450211640770 0.0
3.9362812471617388 0.1831328258877045 0.0
3.1812213858804776 -0.2804516419136208 0.0
1.5934204854055185 3.1018872853135511 0.0
1.2065944299863516 1.0247631812255134 0.0
4.1077884478158708 2.1307730016081647 0.0
1.3132876283629142 0.7956615646584354 0.0
1.5293876756193006 2.7802696945164196 0.0
3.6526787460453725 2.0832510842897811 0.0
1.3505843327001603 -0.2630283198978965 0.0
3.3786245126608021 0.7985378722947216 0.0
3.1595288910793125 2.5035632978100013 0.0
2.6863096898519410 -1.4067771265022522 0.0
4.0601861466142557 2.5985539331545424 0.0
3.4357225313325208 1.9354656047760392 0.0
3.8157309626261333 0.2375850644241101 0.0
2.0001021381797766 3.0559799502224245 0.0
3.6260394988006754 3.6744547407591508 0.0
2.4430958964679839 4.0337874213778901 0.0
0.8473361056440605 0.8051659622113010 0.0
3.7503810269821614 2.5551442835055038 0.0
1.0842989605386677 0.5730879474386260 0.0
2.9167369711491755 0.2644101570718534 0.0
2.1175695297520138 2.2084998544702676 0.0
3.5911556135675622 2.8389293415871335 0.0
3.0724723417462698 1.0447639632427952 0.0
0.8370969302733072 0.6034634407887863 0.0
4.1393721498411367 2.0266544520606247 0.0
4.0647330025313462 -0.4081189023307312 0.0
3.5678969308741428 1.6121674556703542 0.0
2.2806368795764329 1.5746607706163727 0.0
0.7641786060670739 3.4574472042630289 0.0
0.9920603835889606 0.8544786614162935 0.0
4.2273929350062494 1.9762348364436659 0.0
1.3060879862634782 1.0427951619366458 0.0
1.2189327361188884 0.4733092742163795 0.0
3.1538548267918030 1.8671279734037782 0.0
1.4127976039489385 -0.2941326132286457 0.0
4.2450390485063911 2.4341520640442633 0.0
3.7037322254271308 1.6503464653522839 0.0
3.1510875635784679 2.2145430149792253 0.0
2.8948086962559580 3.0037840752967302 0.0
3.9273605495604720 3.2639974671792111 0.0
0.9796482714196788 0.3040752996449783 0.0
1.7261809239902373 2.4099939469744069 0.0
4.0322586953117119 2.5482892417382046 0.0
3.6900600937632326 -1.3912718558634463 0.0
1.2131525747359719 3.3076046726578849 0.0
1.1732805861919007 0.4774402170797572 0.0
0.9664246547369582 0.3857468321434959 0.0
0.9308512113620826 0.0555161012739094 0.0
4.0973032212644318 2.4616362814448696 0.0
3.8250804490688073 2.8472056996563055 0.0
2.7790556451845272 1.6411583921144353 0.0
1.0309026145271829 1.4851735886549999 0.0
3.9359391938624748 2.6471981911547635 0.0
4.1365541764662241 2.3382436484828411 0.0
4.2864172478795117 2.1762958969721651 0.0
4.0633025761520720 1.8880708194896680 0.0
1.6335659245000977 2.3202295065819460 0.0
3.8038259214277743 -0.1278145072375458 0.0
1.2342321949647146 0.6184007898952572 0.0
3.8729613155865925 1.5136768451447613 0.0
3.9498181969450834 1.3929242709534246 0.0
2.5646811903213464 1.7657489675641549 0.0
3.0980647947109330 1.5111421380871233 0.0
3.0785802760763565 2.0987204072637757 0.0
3.0520443288065344 1.9362781243125642 0.0
3.3551473413007846 1.7457956391080858 0.0
4.0039944360229205 2.2543508241369961 0.0
1.0794978004736751 0.1518602989687608 0.0
2.8659447757877583 2.1238435541974483 0.0
2.4568317835196445 0.8533482546566475 0.0
2.7520391291613997 2.0051168885964041 0.0
2.4773485795210712 -0.0279899632551304 0.0
4.1077126912091417 -0.7123665994095205 0.0
0.9398189768305307 0.9568578703810998 0.0
2.3130084236490349 -1.0761021475444585 0.0
4.0396970403700658 2.5856352161312559 0.0
2.8346211929755003 1.4250003494171322 0.0
3.1110365647600795 1.8298617495008307 0.0
3.4916977339892306 3.9779604009153808 0.0
0.5268669709594279 1.6423743177562287 0.0
3.7387283279008572 2.7432373951388640 0.0
1.5469691837676540 1.8406145971201899 0.0
2.9270892569871401 -0.6869737709829818 0.0
3.7934776371955734 0.8261949744888729 0.0
3.6041909768036597 2.4667990252096592 0.0
0.6397258143342053 0.5074236681993153 0.0
1.2006823273088993 2.2396673068181316 0.0
3.1055973871901839 2.7536395085740262 0.0
1.7180490928019729 2.9227624796448670 0.0
1.0170225098463721 1.8902123886527222 0.0
0.8186060898336585 1.5830962609637624 0.0
1.6637337930873699 3.0813955643198212 0.0
1.4457031213066092 1.1748704640229974 0.0
2.1902879853999613 -1.4149250509255433 0.0
2.1267288880280040 1.5865482454421220 0.0
0.6756277462512589 0.2962842239682797 0.0
0.7651528933307833 0.5802529846324447 0.0
3.9180677416700957 3.4631520638796611 0.0
1.2702463632918628 -0.0765131065230145 0.0
3.3271594611694564 0.8364669529765987 0.0
4.0179568692157659 -0.1299179268643255 0.0
3.8714979223165846 2.3922761909833667 0.0
1.1250736740068323 3.3292141498045469 0.0
2.5741307870929635 0.6950247427442690 0.0
0.6042910313360987 0.3642504572059314 0.0
3.4816867123102853 -0.4495513678492437 0.0
3.6794820479194876 2.6516618809647605 0.0
0.7681109571880975 -0.0128459182892240 0.0
2.6194787052690374 -0.2493144798209446 0.0
2.6818805504675751 1.4398477511875354 0.0
3.6938507875345663 -1.7305002458442276 0.0
0.8221427462007056 0.1072429684962402 0.0
2.4558509040794099 1.5509986274249974 0.0
2.8545844777245688 2.4129361020388980 0.0
2.2217438092910125 1.9560033505506207 0.0
3.8954943187363935 2.5345285477088000 0.0
3.7781745560180835 1.9147517534327041 0.0
2.5270127521225638 1.0986245310528762 0.0
3.7086210049234323 3.7866879824290396 0.0
4.1741806759216651 2.0860960144037999 0.0
0.9416509548420849 0.5971249258486211 0.0
3.1438180245916096 3.2369854279938339 0.0
2.7273812432610156 1.6592830051419070 0.0
4.2104743895438075 2.1738969014451417 0.0
4.1338846690105244 1.9873004359217601 0.0
3.0900727739855003 2.1925553225192469 0.0
3.7257114276698218 2.5729200769791873 0.0
1.2618028356006870 -0.7692192125020006 0.0
3.3417995314356443 0.6503642869832423 0.0
3.9475396996352270 0.1682267228944012 0.0
1.6698292503647585 4.0683856499478210 0.0
2.2564375351762402 1.8715765493862651 0.0
0.7102361748370054 0.6020785635820705 0.0
3.9792562465891779 2.5915634554207587 0.0
4.2728220073981023 2.1150355926390607 0.0
3.9193450906944172 1.1751868922388440 0.0
3.8148556443721620 2.1947694071532835 0.0
3.8199120406052387 2.9096384603144232 0.0
3.4742575779332299 0.1061296144673201 0.0
3.9095031787113892 3.4750969863820576 0.0
3.7764218434027597 2.4565497710278086 0.0
3.7035229598184332 1.9205356208661246 0.0
3.5984765930961289 1.7406156434170368 0.0
2.8320629755567897 1.8000603177705252 0.0
3.4088302748623165 1.3761522685300043 0.0
3.2096209324386189 1.6593940330941706 0.0
3.1504658381508519 2.3346726386596273 0.0
3.2887470796039344 2.4977155125631878 0.0
3.0452192112623298 -0.4809172607119589 0.0
3.6096692512204895 3.8492993542218108 0.0
2.5324257816771381 2.1266615611954203 0.0
2.9014931098888077 1.3960727887811322 0.0
3.8882613529309111 0.5550821262973100 0.0
2.4080424807179890 0.3817685217842109 0.0
3.6211419324660663 1.2174855828159667 0.0
2.7989052030436592 2.6282434248463433 0.0
3.4915982438549285 4.5881065765319891 0.0
3.6352532481242483 2.6402110648145900 0.0
2.2584900587290431 1.3287992569098548 0.0
4.3193595268306497 2.3259539800348801 0.0
3.9925410636197909 2.5734727155859853 0.0
2.8622888068485572 -0.7890743617788443 0.0
4.1059070586572304 1.7822564471394167 0.0
2.5124980762801981 2.0284171844835290 0.0
2.5857058070272965 1.0758398760014671 0.0
3.9223577113769785 2.7119554560965411 0.0
2.7362545029742367 1.3624131979129395 0.0
3.8198178112172663 -0.3865200443964457 0.0
1.9703474551057845 1.4349022669133111 0.0
2.3084011364085755 0.6289275340545257 0.0
2.1372174315501535 0.0552803554818165 0.0
4.1580148442434819 2.4706669161000177 0.0
2.5944592551911572 1.7021385600709913 0.0
2.8146937415535844 2.4510723500125406 0.0
2.9347176141970439 4.7381526622478818 0.0
2.3626645997086180 1.2611777067046914 0.0
2.5254001617983586 2.8802718612526177 0.0
2.1989662563723447 1.6663778101141420 0.0
3.2857928419013738 3.5015056243870490 0.0
1.8446280798728540 1.7725962827637352 0.0
3.9467297545754461 -0.0502004398131730 0.0
3.4855039874008487 2.2620460103881341 0.0
3.8721759949645431 2.5690448776516095 0.0
4.0098350323700442 1.9775894180520983 0.0
4.0116944516292277 2.0657696419891916 0.0
3.6564714741248019 0.4757949141093265 0.0
3.0647465225174191 1.5745162688101788 0.0
1.6455949023733416 1.6766908288973676 0.0
2.2489687530515616 1.0690477543933277 0.0
2.8688273460561287 -1.0439297513534529 0.0
3.7284399601306926 2.5523998311085996 0.0
3.8605537059273045 1.9642993747582222 0.0
1.4723061122015586 0.0865198456829775 0.0
2.0399004174457360 1.0973595048694285 0.0
3.7368988007696773 3.1632072497293136 0.0
1.1504527589195856 0.4537434664510415 0.0
1.8313749795405687 3.2599924485295437 0.0
1.4754946051772679 0.8558143250485771 0.0
3.9502956116470074 1.5535263007894191 0.0
1.8406258302217962 2.2642830287030811 0.0
1.0908933564091674 0.7251558938952153 0.0
2.1240574217078247 2.3887684483976623 0.0
2.7842422319992490 3.3821186269747803 0.0
3.3934018895701303 1.1023982013331022 0.0
3.7438001972426211 0.6668008856862112 0.0
3.5641279337346958 2.2245521615467103 0.0
3.7620157025986058 -1.1089475972171561 0.0
3.2853080851592238 1.7683062347782210 0.0
4.0426896797693477 1.7715199642675494 0.0
1.6566108398004185 -0.3295357291713344 0.0
1.4335493562081911 1.5191492470366781 0.0
3.4410331956549132 2.5831656446020035 0.0
1.2994752094535025 1.8008951500189028 0.0
3.6119187525712872 2.7330071862406591 0.0
3.8882992999091632 1.0795920526501839 0.0
1.4665462427180427 0.7773302441490565 0.0
1.3679659794682542 1.3038814520435480 0.0
3.9080068957472363 -0.8904391091602146 0.0
1.8250212180987213 1.8429239112881137 0.0
1.5080231126425161 0.8444060323802585 0.0
1.3072164050830322 0.1644617410603043 0.0
3.6927140592452363 2.3535161156718960 0.0
3.9310691310373711 0.1868912746235817 0.0
3.1819381580047552 -0.2764370836578827 0.0
1.5934208430446366 3.1018863326474362 0.0
1.1882952207159234 1.0086748696049352 0.0
4.0867143713039384 2.1255161647069727 0.0
1.3356976482836553 0.8087450301052936 0.0
1.5291470000923642 2.7801310536842117 0.0
3.6835251534589677 2.1006920435075838 0.0
1.3506271760290469 -0.2624001780802848 0.0
3.3860219552049289 0.8115841552031262 0.0
3.1580250209572194 2.4894646509379119 0.0
2.6863071602662263 -1.4067918696444361 0.0
4.0733076335789882 2.6042036096869419 0.0
3.4060336143432908 1.9355408531582203 0.0
3.8124120550755372 0.2449660014177897 0.0
2.0000793438583551 3.0560622740591969 0.0
3.6268971962712198 3.6730974592795591 0.0
2.4430097827635282 4.0338136320543976 0.0
0.8621630041363316 0.8170622298447854 0.0
3.7461574338591448 2.5354877637494049 0.0
1.0653665325695507 0.5633105519676382 0.0
2.9220405790475819 0.2723762083763007 0.0
2.1268236319186404 2.2080874537626465 0.0
3.6029303614023171 2.8324300418879327 0.0
3.0616679847165469 1.0489561774902161 0.0
0.8257740847190680 0.5939188831893840 0.0
4.1586566387459865 2.0397844228286011 0.0
4.0633532133718688 -0.4063739793335364 0.0
3.5943539446440531 1.6283869820925534 0.0
2.2683411680378498 1.5752627331484812 0.0
0.7641786060670741 3.4574472042630298 0.0
0.9848725238559564 0.8459098813412120 0.0
4.2203429907881169 1.9874167219292225 0.0
1.3047157211496587 1.0396449567360229 0.0
1.2410491921131994 0.4830605598365285 0.0
3.1218925058946532 1.8485484762485895 0.0
1.4126313613842012 -0.2941639895129980 0.0
4.2425692179526457 2.4347170768115873 0.0
3.6807750396160301 1.6583459889456795 0.0
3.1820475001764628 2.2289061620515360 0.0
2.8941428681638821 2.9975455860597400 0.0
3.9326440527796485 3.2605354356400507 0.0
0.9936147354327520 0.3089939998232557 0.0
1.7262010021286405 2.4101779721068191 0.0
4.0367923299041619 2.5409958970872171 0.0
3.6901397231446080 -1.3914792267242342 0.0
1.2131529175229951 3.3076046752435193 0.0
1.1922969488946293 0.4857896603707890 0.0
0.9478620152513599 0.3775622064905437 0.0
0.9387203744070312 0.0579283425484062 0.0
4.0925583448677365 2.4547935376260548 0.0
3.8336294135285609 2.8316388056598911 0.0
2.7491025205619692 1.6212151406610726 0.0
1.0309685041610581 1.4843320606224339 0.0
3.9486675978257493 2.6352015743593182 0.0
4.1542179713166441 2.3501353282910973 0.0
4.2893171079068413 2.1822758200479293 0.0
4.0446218617148340 1.8998067930876796 0.0
1.6335568576362001 2.3202482533894586 0.0
3.8025342513703304 -0.1224219213952348 0.0
1.2175258454399198 0.6120791824275225 0.0
3.8838536814760278 1.5301518099018947 0.0
3.9504032541663587 1.4111019728679102 0.0
2.5530024019905904 1.7497919647813402 0.0
3.0657511216350173 1.5033673631939459 0.0
3.0598781525504659 2.0765846961934353 0.0
3.0858497017362416 1.9561129375582862 0.0
3.3865230624127940 1.7619048059591860 0.0
3.9805819956014634 2.2462176458550545 0.0
1.0825093573153290 0.1534890043478210 0.0
2.8945033846475812 2.1252060806645887 0.0
2.4806688876492968 0.8658455758108917 0.0
2.7280105232477840 1.9839414481375157 0.0
2.4810856182175822 -0.0225479538925038 0.0
4.1075452879468495 -0.7118069166651294 0.0
0.9400167053877374 0.9568703815336479 0.0
2.3130088372716240 -1.0760991739335735 0.0