# vtk DataFile Version 3.0
LucasCarvalhoTCC Results
ASCII

DATASET POLYDATA
FIELD FieldData 1
TIME 1 1 double
6.300000000000001

POINTS 531 float
0.02430399999999999 0.16425 0.0
0.5913384 0.481878 0.0
1.30475 0.591832 0.0
0.774126 0.951272 0.0
0.04779564148251592 0.1966194329439859 0.0
0.0726092153537953 0.2279866320496896 0.0
0.09876577335895967 0.2582426022760065 0.0
0.1262817198684718 0.2872673048853742 0.0
0.1551671626852806 0.3149288071400502 0.0
0.1854238368919928 0.3410826624766006 0.0
0.2170424591499632 0.3655716640299072 0.0
0.2499995164635996 0.3882263409476824 0.0
0.2842534387828506 0.4088665906889567 0.0
0.3197403359862048 0.4273050841371062 0.0
0.3563695945475563 0.4433531534921038 0.0
0.3940201673622058 0.4568300511916809 0.0
0.4325386107291805 0.4675762214989666 0.0
0.4717406913237268 0.4754709112408955 0.0
0.5114182513144845 0.480453442081874 0.0
0.5513531678859215 0.4825464217651069 0.0
0.6182637923774223 0.5096055604109244 0.0
0.647389101376845 0.5350126187545199 0.0
0.6784752958296183 0.5579802184492302 0.0
0.7112421079139344 0.5784810076698811 0.0
0.7454110434104482 0.5965507527581431 0.0
0.7807301979183381 0.6122562812860965 0.0
0.8169827939052532 0.6256694297140926 0.0
0.853985522124928 0.6368498290413532 0.0
0.8915818964261243 0.6458353363890481 0.0
0.9296339776508085 0.6526379336565091 0.0
0.9680139759519513 0.6572432424840469 0.0
1.006596418266983 0.659612648128084 0.0
1.045251165872634 0.6596877658251245 0.0
1.083837680945672 0.657397570658483 0.0
1.122201320191055 0.6526688455666412 0.0
1.160173053543044 0.6454405726452737 0.0
1.197574286953346 0.6356824063786186 0.0
1.23422961949795 0.6234159704281613 0.0
1.26998758503999 0.6087366500005643 0.0
1.285086682927543 0.6256533177085738 0.0
1.263669745906668 0.6583917156018083 0.0
1.240480125919214 0.6898988493917133 0.0
1.215532715641304 0.7200329197235763 0.0
1.188869833862339 0.7486599839005789 0.0
1.160556835593143 0.7756559317113654 0.0
1.130680194163798 0.8009104211039757 0.0
1.099347083827048 0.8243335727704395 0.0
1.066684425336412 0.8458643604021228 0.0
1.03283497048792 0.8654772531176074 0.0
0.9979492572630678 0.8831824104874066 0.0
0.9621749986495024 0.8990166556695112 0.0
0.9256475378616493 0.9130272060048579 0.0
0.8884846540507749 0.9252538945090274 0.0
0.8507866567183312 0.935715378288671 0.0
0.8126405010322847 0.9444016349017643 0.0
0.7365055179612304 0.9396161853607135 0.0
0.699310855231089 0.9266666891603924 0.0
0.6626179171945521 0.9123577070090924 0.0
0.6264901449910028 0.8966765244755546 0.0
0.5909789825447118 0.8796450886595113 0.0
0.556124897941028 0.8613059841617771 0.0
0.5219601957009091 0.8417124664434518 0.0
0.4885110616878257 0.8209207172498462 0.0
0.4558007060429968 0.7989848675704875 0.0
0.4238520247653796 0.775953675763176 0.0
0.3926900138417566 0.7518687036338616 0.0
0.3623437622133722 0.7267636709390595 0.0
0.3328479550295906 0.7006647540504483 0.0
0.3042438201183181 0.6735915983461908 0.0
0.2765795358619001 0.6455588748284606 0.0
0.2499101143933102 0.6165781952942546 0.0
0.2242967982692083 0.5866601984136335 0.0
0.1998060807431611 0.5558166834807132 0.0
0.1765083808984156 0.5240625786010467 0.0
0.154476512720734 0.491417660368959 0.0
0.133784033184808 0.457907916333494 0.0
0.114503564227142 0.4235664945146766 0.0
0.09670517293008124 0.3884342245925089 0.0
0.0804548910754031 0.3525597611689231 0.0
0.06581337946329963 0.3159993090744527 0.0
0.05283482490365372 0.2788161107032479 0.0
0.0415660226296666 0.2410796291505872 0.0
0.03204569406625649 0.2028646095712164 0.0
0.5272009874003867 0.6419624505772817 0.0
0.7421848286576707 0.7716726266421574 0.0
0.8789503364783713 0.7829234141383637 0.0
0.6149390992905563 0.7449438030688011 0.0
0.4064556042659638 0.5942834991165423 0.0
0.9875021850865396 0.7666507358101158 0.0
0.3188065960661005 0.539594034984892 0.0
0.61365100263957 0.6399487878797632 0.0
0.8049090660915541 0.8464379870891131 0.0
0.7099820328572021 0.6828840522539854 0.0
0.5239467234991928 0.7406922291088611 0.0
0.8154056325591208 0.7211774015928547 0.0
0.6676178829014909 0.8152713180209475 0.0
0.4416080359619968 0.674360953773491 0.0
0.489443615375965 0.5654986742123573 0.0
1.076665773779852 0.7387182918829318 0.0
0.250390543112057 0.4877450112830265 0.0
0.5736819937919005 0.5790366884881447 0.0
0.7263706755366466 0.8615301097563091 0.0
0.940143307772686 0.8233944909985552 0.0
0.927065543677544 0.7236459161626674 0.0
0.8744389806957806 0.8609114380468947 0.0
0.336888362650554 0.6081958070931937 0.0
0.2030757334857187 0.4383942902513459 0.0
0.3861483329720647 0.5255533415902591 0.0
0.5621001921466506 0.7923778419149285 0.0
0.6822897332295245 0.7428043323059399 0.0
0.5764061681675353 0.6881266532454204 0.0
1.129195449682892 0.7163224153578123 0.0
0.8157794419559141 0.7831214907157077 0.0
0.3806644703311284 0.6554275822782399 0.0
0.7695737871052837 0.669593045341503 0.0
0.4699375460410929 0.6217118815516158 0.0
0.6830867370872363 0.630350317562806 0.0
1.040416897214502 0.7929392348941093 0.0
0.4604428393605979 0.7321209818568342 0.0
0.8729552856459739 0.7015083313474691 0.0
1.017010765275644 0.7166925631396708 0.0
0.6458785458483771 0.6946878992565794 0.0
0.7733575582969163 0.8941098392103913 0.0
0.4457537579383052 0.5273353624588528 0.0
0.163830623786951 0.3903175742448083 0.0
0.6095823984734953 0.8256600013628639 0.0
0.2618074352614998 0.5435604438425528 0.0
0.6287880420949764 0.5875838132975476 0.0
0.3100402147222924 0.4835410260423071 0.0
0.5422177893302824 0.5343158927797464 0.0
0.9964262112680041 0.8213447667248638 0.0
0.4971609598823845 0.6906859160718212 0.0
0.5740517260168769 0.633982031239429 0.0
0.7423299505107201 0.7218768583704394 0.0
0.767147744476665 0.819658485932403 0.0
0.9427329070375209 0.7774595780066723 0.0
0.8375285793481674 0.8869398470561132 0.0
0.2879426409425497 0.5872676364411625 0.0
0.6797562629663748 0.8647676397847667 0.0
1.171674168522591 0.6949964056806914 0.0
0.5261010885606964 0.6055079299963303 0.0
0.7081534744446967 0.8078672678314597 0.0
0.9681672688626206 0.705385299758921 0.0
0.7364069054947873 0.6432919177737106 0.0
0.363826821075015 0.5678764295233764 0.0
0.826170216989844 0.6605791783255148 0.0
0.1284439337099834 0.3602715082199688 0.0
0.518140828090112 0.783905985497134 0.0
0.8452908336054504 0.8167586152211004 0.0
0.2015204468558833 0.492088055688788 0.0
0.4005883523205732 0.7121294304856254 0.0
0.3551392316798573 0.4864133323669936 0.0
0.2501727034998737 0.4443035857235296 0.0
0.857938396055507 0.7390317828783199 0.0
0.9245301815433076 0.8668102132501951 0.0
0.5702050292970205 0.7323438487067678 0.0
1.111607633075016 0.759318252473435 0.0
0.6317193755596126 0.7853891653733797 0.0
0.7921381265818805 0.7497379312370454 0.0
1.088942426366261 0.7015435214091311 0.0
0.5818207607488639 0.5352340257544296 0.0
0.4203532416309484 0.6369649631143086 0.0
0.4854818714173937 0.5131439318707094 0.0
0.4475429831528036 0.5690430472086269 0.0
0.8968753306595262 0.8225547516037004 0.0
0.6339557898063448 0.8543470494763272 0.0
0.3416564411796998 0.6516449771136894 0.0
1.082970576264455 0.7856036465430698 0.0
0.2255204648032354 0.5229464838393291 0.0
0.7335043541589261 0.9012744999286941 0.0
0.9097052989734319 0.6921177492721042 0.0
0.5363428275528405 0.6992389299864537 0.0
0.9657777897300287 0.8588269742066746 0.0
1.025947476617909 0.7556651119714124 0.0
0.1090829970454354 0.3226173037985549 0.0
0.4836644525169279 0.7663103281018557 0.0
0.6910856326166581 0.777867529208468 0.0
0.6694391877434097 0.5946719355048008 0.0
0.2954883530575775 0.4501042133334518 0.0
0.6746032498128595 0.6643957640016517 0.0
1.054636636429828 0.6974583960183274 0.0
0.8939255235163368 0.7470597914537064 0.0
0.3749741568555516 0.6190655430398917 0.0
1.204101441114554 0.6801433534918062 0.0
0.6130053345415899 0.6785345531932346 0.0
0.7679719108452487 0.8562682874000032 0.0
0.9710820219997449 0.8008372590855476 0.0
0.1608022352294362 0.4242591696906621 0.0
0.2865399820604418 0.5141369963640697 0.0
0.1962258775846918 0.4008383427744516 0.0
0.6210920174972845 0.5516143721732873 0.0
0.4843009180093644 0.6583977883024127 0.0
0.5695029195102991 0.8267073580550881 0.0
0.9562891163300477 0.7436031251145003 0.0
0.4174190173896447 0.5044019081507806 0.0
0.410860431802698 0.5535781448116232 0.0
0.8709320861791604 0.9002602580953145 0.0
0.427354757192076 0.7399041791280969 0.0
0.7107884943357746 0.7172753954970394 0.0
1.030382288537246 0.8267335242583146 0.0
0.7737440530215844 0.7115751739064536 0.0
0.8042035044852396 0.9123190309183211 0.0
0.0480920891272324 0.2181807374272496 0.0
0.3695079235280397 0.6886893012630373 0.0
0.773516204411121 0.7830673827025234 0.0
0.302776671534508 0.6210168062901616 0.0
0.7150573728414059 0.6149413270404035 0.0
0.5863276441271683 0.769748656022605 0.0
1.143752049005473 0.6780480059671409 0.0
0.6477132714923303 0.7318578097016951 0.0
0.8380052680878572 0.8531154611905379 0.0
0.5966224054445893 0.6051703156405629 0.0
0.3207240819522855 0.5772784374275386 0.0
0.3520131451607586 0.5263918604440553 0.0
0.8573528491808811 0.6709738722470224 0.0
0.1797236573643203 0.460867988842514 0.0
0.5540828191547277 0.6661566975721369 0.0
1.158039843450239 0.7357536542887966 0.0
0.08638006908591334 0.286237566592474 0.0
0.790861820497242 0.6466611559014377 0.0
0.5362079962218838 0.8121454698907893 0.0
0.9405172130232713 0.6862060282668497 0.0
0.6039359324506977 0.711463595189489 0.0
0.4440093493753478 0.6096873538428137 0.0
0.5500746279087338 0.7620941994763282 0.0
0.2578504496023611 0.5739900063885278 0.0
0.502526452350101 0.6209820553182169 0.0
0.6799833858912959 0.7033681517905728 0.0
0.7183487148906835 0.7518430858176317 0.0
0.8006701240044786 0.8118713608014352 0.0
0.1304684854221093 0.3934039266496895 0.0
1.00789495394612 0.7937868725857601 0.0
0.696960396255943 0.893370944718147 0.0
0.8258315165019564 0.7538365084989149 0.0
0.8462950259502577 0.775614153529746 0.0
0.4082018839227037 0.6749460331934272 0.0
0.7025889307788081 0.8378536687159448 0.0
0.4666676520109517 0.6984557076050861 0.0
[...]
POINT_DATA 531

VECTORS Velocity float
0.0000000000000000 1.0000000000000000 0.0
0.0000000000000000 1.0000000000000000 0.0
2.6381936583690959 -0.9593276480930804 0.0
1.7880127716597198 1.0222736461701760 0.0
0.0000000000000000 1.0000000000000000 0.0
0.0000000000000000 1.0000000000000000 0.0
0.0000000000000000 1.0000000000000000 0.0
0.0000000000000000 1.0000000000000000 0.0
0.0000000000000000 1.0000000000000000 0.0
0.0000000000000000 1.0000000000000000 0.0
0.0000000000000000 1.0000000000000000 0.0
0.0000000000000000 1.0000000000000000 0.0
0.0000000000000000 1.0000000000000000 0.0
0.0000000000000000 1.0000000000000000 0.0
0.0000000000000000 1.0000000000000000 0.0
0.0000000000000000 1.0000000000000000 0.0
0.0000000000000000 1.0000000000000000 0.0
0.0000000000000000 1.0000000000000000 0.0
0.0000000000000000 1.0000000000000000 0.0
0.0000000000000000 1.0000000000000000 0.0
0.0000000000000000 0.0000000000000000 0.0
0.0000000000000000 0.0000000000000000 0.0
0.0000000000000000 0.0000000000000000 0.0
0.0000000000000000 0.0000000000000000 0.0
0.0000000000000000 0.0000000000000000 0.0
0.0000000000000000 0.0000000000000000 0.0
0.0000000000000000 0.0000000000000000 0.0
0.0000000000000000 0.0000000000000000 0.0
0.0000000000000000 0.0000000000000000 0.0
0.0000000000000000 0.0000000000000000 0.0
0.0000000000000000 0.0000000000000000 0.0
0.0000000000000000 0.0000000000000000 0.0
0.0000000000000000 0.0000000000000000 0.0
0.0000000000000000 0.0000000000000000 0.0
0.0000000000000000 0.0000000000000000 0.0
0.0000000000000000 0.0000000000000000 0.0
0.0000000000000000 0.0000000000000000 0.0
0.0000000000000000 0.0000000000000000 0.0
0.0000000000000000 0.0000000000000000 0.0
2.6783022499290392 -1.7943065607771822 0.0
3.6706773682291352 -2.3036213316573426 0.0
3.7614740618384759 -2.2270963210127999 0.0
3.7624674322563618 -1.9756277100540323 0.0
3.8560375772886446 -1.7637098623919591 0.0
3.9651465904795145 -1.4679408260964146 0.0
4.0311640079565372 -1.3205177466758047 0.0
4.1685986427406965 -1.1011118407999489 0.0
4.1705499509801855 -0.8150781408610837 0.0
4.1630420552116139 -0.5535830923510791 0.0
4.0367844768258685 -0.2592635629612253 0.0
3.8171531405988151 0.0415769463627677 0.0
3.6235659170186834 0.2757212199482616 0.0
3.2523468616262434 0.5299349584640539 0.0
2.6151671530915679 1.0875134586413351 0.0
1.7606864235730395 0.9357130854017727 0.0
0.0000000000000000 0.0000000000000000 0.0
0.0000000000000000 0.0000000000000000 0.0
0.0000000000000000 0.0000000000000000 0.0
0.0000000000000000 0.0000000000000000 0.0
0.0000000000000000 0.0000000000000000 0.0
0.0000000000000000 0.0000000000000000 0.0
0.0000000000000000 0.0000000000000000 0.0
0.0000000000000000 0.0000000000000000 0.0
0.0000000000000000 0.0000000000000000 0.0
0.0000000000000000 0.0000000000000000 0.0
0.0000000000000000 0.0000000000000000 0.0
0.0000000000000000 0.0000000000000000 0.0
0.0000000000000000 0.0000000000000000 0.0
0.0000000000000000 0.0000000000000000 0.0
0.0000000000000000 0.0000000000000000 0.0
0.0000000000000000 0.0000000000000000 0.0
0.0000000000000000 0.0000000000000000 0.0
0.0000000000000000 0.0000000000000000 0.0
0.0000000000000000 0.0000000000000000 0.0
0.0000000000000000 0.0000000000000000 0.0
0.0000000000000000 0.0000000000000000 0.0
0.0000000000000000 0.0000000000000000 0.0
0.0000000000000000 0.0000000000000000 0.0
0.0000000000000000 0.0000000000000000 0.0
0.0000000000000000 0.0000000000000000 0.0
0.0000000000000000 0.0000000000000000 0.0
0.0000000000000000 0.0000000000000000 0.0
0.0000000000000000 0.0000000000000000 0.0
4.0036930660581662 2.6029359266917762 0.0
4.2967757871327770 2.1697460047642378 0.0
3.9062466956215309 1.1893000253989172 0.0
3.8325571422923477 2.2053609282974835 0.0
3.8206054917042089 2.9201666960298684 0.0
3.4223943106147980 0.0687672118200754 0.0
3.9087817384486425 3.4762489092299149 0.0
3.7842434963426519 2.4467812454781006 0.0
3.7601204389514145 1.9729586482729105 0.0
3.5786677002583276 1.7433602329008626 0.0
2.8363829599442494 1.7944144533400235 0.0
3.3409323023571407 1.3851045297698612 0.0
3.2130256014531708 1.6703563197168174 0.0
3.1605747949559295 2.3429370395385591 0.0
3.2690920732908055 2.5124927173444300 0.0
3.0170110328812361 -0.5032500799161614 0.0
3.6099384460462867 3.8487455283156451 0.0
2.5034289073386362 2.1146453762539950 0.0
2.9099184092386823 1.4102310874484634 0.0
3.9351441474940474 0.5372828100665897 0.0
2.3094490800937120 0.3640144458858382 0.0
3.6983389737111532 1.2354822991825469 0.0
2.7986024585420592 2.6302303288992599 0.0
3.4916652687184526 4.5880227822344892 0.0
3.6324154167705109 2.6433636224141108 0.0
2.2496191112751749 1.3225370765167350 0.0
4.3400018331438961 2.3590095814755738 0.0
4.0244661509846615 2.5818035363861878 0.0
2.8499186773471874 -0.7941550240240536 0.0
4.1190046975381769 1.8262811546511015 0.0
2.5153656779467921 2.0321135128386438 0.0
2.5352642997174701 1.0710490290422712 0.0
3.9353377423830507 2.7325433471737117 0.0
2.7122196433281451 1.3455816715677664 0.0
3.8243628332199928 -0.4383724087834300 0.0
1.9705938052849350 1.4333225856853364 0.0
2.2146938940792000 0.6113137625724753 0.0
2.0769835375974219 0.0372947905128671 0.0
4.1774800176974978 2.4814072861394458 0.0
2.6136909548499929 1.7178263411061003 0.0
2.8021423021336767 2.4560002440704984 0.0
2.9347198865729780 4.7381451047072796 0.0
2.3552725619922428 1.2571812471271437 0.0
2.5248949575539870 2.8795706221950956 0.0
2.1710588173838463 1.6406019492965567 0.0
3.2865424885643830 3.5018452420725232 0.0
1.8115049253386433 1.7688269981153488 0.0
3.9956273194206950 -0.1022319354479779 0.0
3.5044019051781152 2.2653390586350959 0.0
3.8893660904231062 2.5711928410286196 0.0
3.9935155816623866 2.0125439773596323 0.0
4.0577617724226522 2.1213388964772246 0.0
3.6226015264363003 0.4507358675213446 0.0
3.1278480619096038 1.6007516959206665 0.0
1.6450087950142833 1.6766357105929688 0.0
2.2431780815715703 1.0696969957748297 0.0
2.8648778952753466 -1.0488360983816156 0.0
3.7305866858312529 2.5619606012830967 0.0
3.8842864572574300 1.9954064825223004 0.0
1.4044738008952755 0.0721338899722086 0.0
2.0098974550101367 1.0947938175402776 0.0
3.7356524863358920 3.1676409837392097 0.0
1.1046948163296648 0.4421170322299263 0.0
1.8313766428303144 3.2599906790781370 0.0
1.4726480763055496 0.8518160504742299 0.0
3.9976522466919806 1.5898907837306397 0.0
1.8405738010347006 2.2639920258397628 0.0
1.0927675660575353 0.7260679954592816 0.0
2.1236616414547309 2.3895218656801003 0.0
2.7846399828452642 3.3820417085236323 0.0
3.3179594865615401 1.1006661404030074 0.0
3.8409359283628519 0.6508644207180653 0.0
3.5808694335764906 2.2260480948675427 0.0
3.7618278808129149 -1.1303067829189093 0.0
3.2873781264812929 1.7729911190028891 0.0
4.0228154951264061 1.8097172898746883 0.0
1.6377552594200060 -0.3346018833548226 0.0
1.4062604984443994 1.5076884841835625 0.0
3.4476305849329383 2.5921121597952390 0.0
1.2838631023065246 1.8024580700195689 0.0
3.6036941998479906 2.7486345056680279 0.0
3.9408625030906643 1.0908888372141927 0.0
1.4627956760773810 0.7754621901226837 0.0
1.3691554477109076 1.3056666617410473 0.0
3.9168815203014518 -0.9369607202819871 0.0
1.8248474745133552 1.8424501510909510 0.0
1.5119765104053435 0.8496678973110254 0.0
1.2387817776206382 0.1575086599714677 0.0
3.7167760963168619 2.3564505371500011 0.0
4.0361841573653816 0.1456491501926197 0.0
3.1339484379385163 -0.3179777990889143 0.0
1.5934209846426144 3.1018864741444592 0.0
1.1883530893285403 1.0069431942913931 0.0
4.1089063236879104 2.1591819888850359 0.0
1.3152798470038622 0.7940453413831476 0.0
1.5297528909198985 2.7802342940631188 0.0
3.6764445075365062 2.0985238054564594 0.0
1.3232553958378799 -0.2697880470034515 0.0
3.3095603456356883 0.8006668098206039 0.0
3.1583948343229498 2.4947135346743892 0.0
2.6857708903499922 -1.4078128579259332 0.0
4.0990896386221678 2.6136793952349873 0.0
3.4401138858727780 1.9735165667718644 0.0
3.8157213813542743 0.2112132711440215 0.0
2.0000865122159146 3.0560343820023350 0.0
3.6270762672025505 3.6728883937959043 0.0
2.4430337816398646 4.0338064839776262 0.0
0.8441459185325413 0.7999786793430297 0.0
3.7669636077366246 2.5487184395742921 0.0
1.0614959498207743 0.5611629225593794 0.0
2.8359421364529895 0.2465354486046608 0.0
2.1216046017805872 2.2104758507109188 0.0
3.5969134230449220 2.8411071267049084 0.0
3.1347446747509937 1.0501857934753203 0.0
0.8268865636394294 0.5937403671974640 0.0
4.1556846839831456 2.0643350092521264 0.0
4.1277109509827961 -0.4668863205905588 0.0
3.5499906207235092 1.6469575975339334 0.0
2.2963572672057357 1.5851754633025603 0.0
0.7641786051595034 3.4574472034411232 0.0
0.9865444240486930 0.8476055979449681 0.0
4.2482404185151834 2.0430800963977735 0.0
1.3046611826021026 1.0402106713438486 0.0
1.2215438706721609 0.4757364597053266 0.0
3.1221600159217355 1.8474957495167554 0.0
1.4057579770790980 -0.2954558597803870 0.0
4.2679745930453219 2.4548206593276425 0.0
3.7487508080363900 1.6941275110661023 0.0
3.1677850331202095 2.2118038597448315 0.0
2.8935726409664717 2.9988128375978604 0.0
3.9318892115937647 3.2624860114759944 0.0
0.9443208751523208 0.2982864472296425 0.0
1.7262045181716505 2.4100772190230950 0.0
4.0703971826680769 2.5471089638521467 0.0
3.6905174878200864 -1.4048609790975024 0.0
1.2131528839811803 3.3076046014859859 0.0
1.1555095272456730 0.4744424681624817 0.0
0.9454876376412775 0.3771247864159490 0.0
0.8864911943773636 0.0532870119990590 0.0
4.1218515434208163 2.4671504124988930 0.0
3.8371879905801713 2.8500828189968104 0.0
2.7480614587402465 1.6152739906812754 0.0
1.0306172498778519 1.4839824048570123 0.0
3.9641530420466267 2.6533362163597394 0.0
4.1634720332508879 2.3683533072097585 0.0
4.3039827045114532 2.2274041333365422 0.0
4.0915845773202166 1.9572692222972907 0.0
1.6335552771808566 2.3202436237757849 0.0
3.8009733460123623 -0.1773374636702089 0.0
1.2173986908327730 0.6140344576548005 0.0
3.8506055690400784 1.5523311884971684 0.0
3.9394940939545813 1.4333064200363437 0.0
2.5578373516615556 1.7514970916929600 0.0
3.0747120198586635 1.5206700914231339 0.0
3.0725995852813193 2.0799214044763259 0.0
3.0668869360741606 1.9380835059560544 0.0
3.3504454827052439 1.7781566263939157 0.0
3.9985419269391076 2.2695877236480948 0.0
1.0374966835600830 0.1422137870247282 0.0
2.8664843789199459 2.1274634633071190 0.0
2.3919863420538090 0.8506658608148862 0.0
2.7342459769637690 1.9836265675597853 0.0
2.4029717650850855 -0.0481983895754815 0.0
4.1522794507321530 -0.7732760234533604 0.0
0.9397372675939744 0.9564378087216219 0.0
2.3130142650217023 -1.0760565251085723 0.0
4.0845693019010056 2.5931554379886563 0.0
2.8413865083856567 1.4316871386005656 0.0
3.1330129114573668 1.8716383166569777 0.0
3.4918064681273071 3.9779088505107638 0.0
0.5215341661771346 1.6424365507336010 0.0
3.7513683964010713 2.7547717155149560 0.0
1.5508211580693008 1.8409269220062012 0.0
2.9100098496140996 -0.7035537549074877 0.0
3.7742215517684832 0.8302197250798571 0.0
3.6285054336476028 2.4724975752576306 0.0
0.6300280914315847 0.4975328610835397 0.0
1.2013116636241130 2.2394820431658511 0.0
3.1056956120909280 2.7507558361109443 0.0
1.7179730471315022 2.9227281058908252 0.0
1.0190624834327662 1.8919539944154986 0.0
0.8131485842010013 1.5836606816191550 0.0
1.6637037941486101 3.0813959047292281 0.0
1.4424188912530993 1.1820889715066227 0.0
2.1903434255380625 -1.4148536775911658 0.0
2.1128926892473756 1.5678424541816482 0.0
0.6607404579630893 0.2921615024582437 0.0
0.7633826670196753 0.5772677701709635 0.0
3.9213286567248380 3.4616948002630079 0.0
1.2607460368973160 -0.0785751153851470 0.0
3.4087645177864920 0.8342206558695320 0.0
4.1134274045968580 -0.1856272519003425 0.0
3.9055505820969354 2.4042298074255015 0.0
1.1250736330246640 3.3292141687032224 0.0
2.4868323126435365 0.6909926793499923 0.0
0.5907075168450644 0.3552228998863656 0.0
3.4561790054965611 -0.4939719666852472 0.0
3.6897294895779700 2.6446469690887939 0.0
0.7396280263196638 -0.0163840751584858 0.0
2.5728125992668183 -0.2746238089786528 0.0
2.6410070646098247 1.4199805633648668 0.0
3.6934556393358466 -1.7362817803049959 0.0
0.7873001868169764 0.1051924959304189 0.0
2.4130454850991869 1.5305771863233910 0.0
2.8545492844918408 2.4214758379191750 0.0
2.2148145328795668 1.9611830280234173 0.0
3.9204468937587711 2.5285552002631855 0.0
3.7756151642907154 1.9475752390660761 0.0
2.4871290642461190 1.1051811277274766 0.0
3.7093716329501043 3.7864126056426786 0.0
4.1910262974758616 2.1403258623227526 0.0
0.9329637438430236 0.5968794073789218 0.0
3.1439173534709326 3.2360347024003997 0.0
2.7157010483468667 1.6757008737384260 0.0
4.2231912296994363 2.2213079828651021 0.0
4.1398829618261406 2.0462213037388146 0.0
3.1070381581213944 2.1898972623273552 0.0
3.7427339420554357 2.5825220960074984 0.0
1.2604623644161748 -0.7698885224854002 0.0
3.2702276530735155 0.6443412324974020 0.0
4.0075358599371009 0.1311902764210648 0.0
1.6698194294571320 4.0683863967663134 0.0
2.2525549614548317 1.8643364365212223 0.0
0.7055213820944087 0.6015023672926645 0.0
4.0107912301954949 2.5975566997669466 0.0
4.2936494938766732 2.1745895967870124 0.0
3.9063902064139606 1.1969119074440828 0.0
3.8207143355046007 2.1983721863713401 0.0
3.8235326320744996 2.9145447125774444 0.0
3.4226179891399653 0.0716784398885028 0.0
3.9096425915220103 3.4744969345057446 0.0
3.7988686300736987 2.4542735268847515 0.0
3.7478061040650581 1.9783900012383919 0.0
3.5943899129312959 1.7533527095216495 0.0
2.8227140982913479 1.7825139636389424 0.0
3.3521612876110902 1.3939965704640167 0.0
3.1956922424986880 1.6638442793695187 0.0
3.1550244088397115 2.3312381644202356 0.0
3.2805898419200452 2.5097934286529702 0.0
3.0170043465692351 -0.5032758392312412 0.0
3.6098450871876850 3.8489593582583232 0.0
2.5179059335545224 2.1187208744917276 0.0
2.8946974855102141 1.4073975220456290 0.0
3.9324283261463737 0.5415446980684581 0.0
2.3135177263697213 0.3674117993859544 0.0
3.6907784471392953 1.2394006307203498 0.0
2.7982908728129257 2.6268538801468910 0.0
3.4915996515205263 4.5880910857788386 0.0
3.6352925359413804 2.6419128354408770 0.0
2.2337528894118517 1.3132467830583980 0.0
4.3396884038685650 2.3610577883186425 0.0
4.0232383500056175 2.5770267436259018 0.0
2.8498839160848020 -0.7942305496084219 0.0
4.1175604367080219 1.8355191395714268 0.0
2.5122404365027546 2.0256940209672933 0.0
2.5501243623955809 1.0785523452238799 0.0
3.9406872432875408 2.7241836780125470 0.0
2.7298066004824530 1.3547124119184997 0.0
3.8244213379387615 -0.4378451092550327 0.0
1.9601653457763184 1.4238874682087506 0.0
2.2232001669544585 0.6151764819262612 0.0
2.0772873936859297 0.0380673071511101 0.0
4.1848641137960128 2.4860961082715640 0.0
2.6023728794878722 1.7175269039727166 0.0
2.8088905712908852 2.4552282219175021 0.0
2.9347128186881148 4.7381535586898149 0.0
2.3394015083020339 1.2489743033872300 0.0
2.5252062762738876 2.8796776323513531 0.0
2.1858047267305745 1.6502073309645955 0.0
3.2864988432507447 3.5015146589614781 0.0
1.8228223393444332 1.7701535279044363 0.0
3.9946136789533209 -0.1005657540659372 0.0
3.4961198432008485 2.2530070069786046 0.0
3.9017577348200114 2.5719436227577135 0.0
4.0042102355086762 2.0206793659978532 0.0
4.0455921440461351 2.1247061548957391 0.0
3.6222955268721710 0.4552780762641824 0.0
3.1206296827322619 1.6027518370740497 0.0
1.6451113291874546 1.6761121381049591 0.0
2.2281562194196831 1.0643157328431330 0.0
2.8648652821104470 -1.0488821853821084 0.0
3.7423527578672009 2.5601928414309656 0.0
3.8691425907241404 1.9921620573734788 0.0
1.4063529186255590 0.0739230257673057 0.0
2.0239891779418837 1.1023414035726411 0.0
3.7373239175150585 3.1641918520603070 0.0
1.1127141546400792 0.4456987603460761 0.0
1.8313758097302022 3.2599922642897483 0.0
1.4614195211225074 0.8444298907828165 0.0
3.9911808187728623 1.5972071551204392 0.0
1.8406141492924342 2.2641951584980919 0.0
1.0881890360683411 0.7216026318891918 0.0
2.1246121667318323 2.3889383750222399 0.0
2.7843854234287742 3.3820599364089738 0.0
3.3246408535049206 1.1084492429189985 0.0
3.8372369617310640 0.6534998099884161 0.0
3.5695257628774653 2.2159002125705975 0.0
3.7619055991560968 -1.1304525298479930 0.0
3.2703639094649066 1.7649322007489805 0.0
4.0288504831602685 1.8187166820697687 0.0
1.6375921187866447 -0.3346768482909233 0.0
1.4158840364027436 1.5113629244375166 0.0
3.4467151294087568 2.5838118669501582 0.0
1.2899423250131619 1.8026292202063761 0.0
3.6108203064983253 2.7443061776507598 0.0
3.9364763234291074 1.0972588088331356 0.0
1.4508560944599833 0.7696866725259410 0.0
1.3675904204253366 1.3026751299538262 0.0
3.9170523988651897 -0.9370299870100260 0.0
1.8249917058316241 1.8427081082742156 0.0
1.5035557422076575 0.8482808371770960 0.0
1.2429022629091060 0.1597265693888049 0.0
3.7085495395427097 2.3465482839105118 0.0
4.0344571762547599 0.1470791202964112 0.0
3.1341417088617693 -0.3167676625398912 0.0
1.5934213255303160 3.1018860743964400 0.0
1.1789767304729657 0.9984211640852345 0.0
4.0976034499897009 2.1571457671810985 0.0
1.3271680412443170 0.8008930105883190 0.0
1.5294555533854790 2.7801444920524259 0.0
3.6927275883028177 2.1077770773217206 0.0
1.3231038247478328 -0.2696693765395317 0.0
3.3125814750596736 0.8071770691864066 0.0
3.1582667976068826 2.4885205016223355 0.0
2.6857708645029348 -1.4078134482671789 0.0
4.1062439047160577 2.6163338485137406 0.0
3.4254291546178157 1.9741129547123366 0.0
3.8147018730781554 0.2141888566892416 0.0
2.0000741965718185 3.0560671681244340 0.0
3.6272480514479692 3.6725619083485652 0.0
2.4429991532301023 4.0338200364287173 0.0
0.8518056682882987 0.8059351236291515 0.0
3.7657955556377138 2.5377896262620636 0.0
1.0514315527524434 0.5559826304966451 0.0
2.8377979019095365 0.2498854422157611 0.0
2.1251498915653726 2.2100740199392845 0.0
3.6018364094324378 2.8378630560952951 0.0
3.1299957503670051 1.0521303968432854 0.0
0.8214970836160682 0.5889776079429757 0.0
4.1654191809758192 2.0718801293828859 0.0
4.1275049666955725 -0.4664334675664973 0.0
3.5629763587228180 1.6562255234215089 0.0
2.2905263823693716 1.5855353823459000 0.0
0.7641786051595035 3.4574472034411237 0.0
0.9836157697317798 0.8438104776158335 0.0
4.2445017007532435 2.0499697894478612 0.0
1.3044230201303593 1.0392142810718641 0.0
1.2332646060491186 0.4809550691272199 0.0
3.1052848601702041 1.8376801755109553 0.0
1.4057017535767797 -0.2954700588300247 0.0
4.2665721409722925 2.4552302080039721 0.0
3.7382559397070989 1.6982971814092789 0.0
3.1841418128338259 2.2185463467467201 0.0
2.8935470252676176 2.9965692451316599 0.0
3.9336675648889128 3.2609951752689565 0.0
0.9504297870253188 0.3006730762358534 0.0
1.7262049676602995 2.4101687409994081 0.0
4.0735438314592596 2.5424576788550497 0.0
3.6905357730344606 -1.4049420758461697 0.0
1.2131529780141737 3.3076046071299143 0.0
1.1649521195094887 0.4787741967187145 0.0
0.9356495885685530 0.3727600219968895 0.0
0.8892522613558634 0.0543277235298626 0.0
4.1195141669814976 2.4633776256794233 0.0
3.8416383200540007 2.8419895709423169 0.0
2.7323707160453012 1.6045902109005312 0.0
1.0308205483278934 1.4839574809140628 0.0
3.9712453393501455 2.6461327206216101 0.0
4.1726328404101114 2.3749101517844546 0.0
4.3050926209866631 2.2314969631416144 0.0
4.0824709824551917 1.9641662844760583 0.0
1.6335521429965481 2.3202480654846585 0.0
3.8007611258466816 -0.1755114156229131 0.0
1.2089051008280387 0.6108647208157436 0.0
3.8556425658868902 1.5615715784370425 0.0
3.9397627756678717 1.4430869663696486 0.0
2.5530702679803796 1.7439232949102303 0.0
3.0580063227277940 1.5171919438854211 0.0
3.0639815244461408 2.0681296613212794 0.0
3.0848099582140551 1.9483274436328948 0.0
3.3664462393975967 1.7872824369500877 0.0
3.9860454893341144 2.2656349930929722 0.0
1.0382262704177736 0.1427474948705286 0.0
2.8807637164269551 2.1274058947756722 0.0
2.4028022162149538 0.8572310866472888 0.0
2.7223630732448734 1.9721332362574380 0.0
2.4040764956460037 -0.0461499917246963 0.0
4.1523989275202817 -0.7732476725343399 0.0
0.9399217447860317 0.9566454131750453 0.0
2.3130153939726732 -1.0760549796403036 0.0