# vtk DataFile Version 3.0
LucasCarvalhoTCC Results
ASCII

DATASET POLYDATA
FIELD FieldData 1
TIME 1 1 double
2.9000000000000004

POINTS 531 float
0.02430399999999999 0.16425 0.0
0.5913384 0.481878 0.0
1.30475 0.591832 0.0
0.774126 0.951272 0.0
0.04779564148251592 0.1966194329439859 0.0
0.0726092153537953 0.2279866320496896 0.0
0.09876577335895967 0.2582426022760065 0.0
0.1262817198684718 0.2872673048853742 0.0
0.1551671626852806 0.3149288071400502 0.0
0.1854238368919928 0.3410826624766006 0.0
0.2170424591499632 0.3655716640299072 0.0
0.2499995164635996 0.3882263409476824 0.0
0.2842534387828506 0.4088665906889567 0.0
0.3197403359862048 0.4273050841371062 0.0
0.3563695945475563 0.4433531534921038 0.0
0.3940201673622058 0.4568300511916809 0.0
0.4325386107291805 0.4675762214989666 0.0
0.4717406913237268 0.4754709112408955 0.0
0.5114182513144845 0.480453442081874 0.0
0.5513531678859215 0.4825464217651069 0.0
0.6182637923774223 0.5096055604109244 0.0
0.647389101376845 0.5350126187545199 0.0
0.6784752958296183 0.5579802184492302 0.0
0.7112421079139344 0.5784810076698811 0.0
0.7454110434104482 0.5965507527581431 0.0
0.7807301979183381 0.6122562812860965 0.0
0.8169827939052532 0.6256694297140926 0.0
0.853985522124928 0.6368498290413532 0.0
0.8915818964261243 0.6458353363890481 0.0
0.9296339776508085 0.6526379336565091 0.0
0.9680139759519513 0.6572432424840469 0.0
1.006596418266983 0.659612648128084 0.0
1.045251165872634 0.6596877658251245 0.0
1.083837680945672 0.657397570658483 0.0
1.122201320191055 0.6526688455666412 0.0
1.160173053543044 0.6454405726452737 0.0
1.197574286953346 0.6356824063786186 0.0
1.23422961949795 0.6234159704281613 0.0
1.26998758503999 0.6087366500005643 0.0
1.285086682927543 0.6256533177085738 0.0
1.263669745906668 0.6583917156018083 0.0
1.240480125919214 0.6898988493917133 0.0
1.215532715641304 0.7200329197235763 0.0
1.188869833862339 0.7486599839005789 0.0
1.160556835593143 0.7756559317113654 0.0
1.130680194163798 0.8009104211039757 0.0
1.099347083827048 0.8243335727704395 0.0
1.066684425336412 0.8458643604021228 0.0
1.03283497048792 0.8654772531176074 0.0
0.9979492572630678 0.8831824104874066 0.0
0.9621749986495024 0.8990166556695112 0.0
0.9256475378616493 0.9130272060048579 0.0
0.8884846540507749 0.9252538945090274 0.0
0.8507866567183312 0.935715378288671 0.0
0.8126405010322847 0.9444016349017643 0.0
0.7365055179612304 0.9396161853607135 0.0
0.699310855231089 0.9266666891603924 0.0
0.6626179171945521 0.9123577070090924 0.0
0.6264901449910028 0.8966765244755546 0.0
0.5909789825447118 0.8796450886595113 0.0
0.556124897941028 0.8613059841617771 0.0
0.5219601957009091 0.8417124664434518 0.0
0.4885110616878257 0.8209207172498462 0.0
0.4558007060429968 0.7989848675704875 0.0
0.4238520247653796 0.775953675763176 0.0
0.3926900138417566 0.7518687036338616 0.0
0.3623437622133722 0.7267636709390595 0.0
0.3328479550295906 0.7006647540504483 0.0
0.3042438201183181 0.6735915983461908 0.0
0.2765795358619001 0.6455588748284606 0.0
0.2499101143933102 0.6165781952942546 0.0
0.2242967982692083 0.5866601984136335 0.0
0.1998060807431611 0.5558166834807132 0.0
0.1765083808984156 0.5240625786010467 0.0
0.154476512720734 0.491417660368959 0.0
0.133784033184808 0.457907916333494 0.0
0.114503564227142 0.4235664945146766 0.0
0.09670517293008124 0.3884342245925089 0.0
0.0804548910754031 0.3525597611689231 0.0
0.06581337946329963 0.3159993090744527 0.0
0.05283482490365372 0.2788161107032479 0.0
0.0415660226296666 0.2410796291505872 0.0
0.03204569406625649 0.2028646095712164 0.0
0.5272009874003867 0.6419624505772817 0.0
0.7421848286576707 0.7716726266421574 0.0
0.8789503364783713 0.7829234141383637 0.0
0.6149390992905563 0.7449438030688011 0.0
0.4064556042659638 0.5942834991165423 0.0
0.9875021850865396 0.7666507358101158 0.0
0.3188065960661005 0.539594034984892 0.0
0.61365100263957 0.6399487878797632 0.0
0.8049090660915541 0.8464379870891131 0.0
0.7099820328572021 0.6828840522539854 0.0
0.5239467234991928 0.7406922291088611 0.0
0.8154056325591208 0.7211774015928547 0.0
0.6676178829014909 0.8152713180209475 0.0
0.4416080359619968 0.674360953773491 0.0
0.489443615375965 0.5654986742123573 0.0
1.076665773779852 0.7387182918829318 0.0
0.250390543112057 0.4877450112830265 0.0
0.5736819937919005 0.5790366884881447 0.0
0.7263706755366466 0.8615301097563091 0.0
0.940143307772686 0.8233944909985552 0.0
0.927065543677544 0.7236459161626674 0.0
0.8744389806957806 0.8609114380468947 0.0
0.336888362650554 0.6081958070931937 0.0
0.2030757334857187 0.4383942902513459 0.0
0.3861483329720647 0.5255533415902591 0.0
0.5621001921466506 0.7923778419149285 0.0
0.6822897332295245 0.7428043323059399 0.0
0.5764061681675353 0.6881266532454204 0.0
1.129195449682892 0.7163224153578123 0.0
0.8157794419559141 0.7831214907157077 0.0
0.3806644703311284 0.6554275822782399 0.0
0.7695737871052837 0.669593045341503 0.0
0.4699375460410929 0.6217118815516158 0.0
0.6830867370872363 0.630350317562806 0.0
1.040416897214502 0.7929392348941093 0.0
0.4604428393605979 0.7321209818568342 0.0
0.8729552856459739 0.7015083313474691 0.0
1.017010765275644 0.7166925631396708 0.0
0.6458785458483771 0.6946878992565794 0.0
0.7733575582969163 0.8941098392103913 0.0
0.4457537579383052 0.5273353624588528 0.0
0.163830623786951 0.3903175742448083 0.0
0.6095823984734953 0.8256600013628639 0.0
0.2618074352614998 0.5435604438425528 0.0
0.6287880420949764 0.5875838132975476 0.0
0.3100402147222924 0.4835410260423071 0.0
0.5422177893302824 0.5343158927797464 0.0
0.9964262112680041 0.8213447667248638 0.0
0.4971609598823845 0.6906859160718212 0.0
0.5740517260168769 0.633982031239429 0.0
0.7423299505107201 0.7218768583704394 0.0
0.767147744476665 0.819658485932403 0.0
0.9427329070375209 0.7774595780066723 0.0
0.8375285793481674 0.8869398470561132 0.0
0.2879426409425497 0.5872676364411625 0.0
0.6797562629663748 0.8647676397847667 0.0
1.171674168522591 0.6949964056806914 0.0
0.5261010885606964 0.6055079299963303 0.0
0.7081534744446967 0.8078672678314597 0.0
0.9681672688626206 0.705385299758921 0.0
0.7364069054947873 0.6432919177737106 0.0
0.363826821075015 0.5678764295233764 0.0
0.826170216989844 0.6605791783255148 0.0
0.1284439337099834 0.3602715082199688 0.0
0.518140828090112 0.783905985497134 0.0
0.8452908336054504 0.8167586152211004 0.0
0.2015204468558833 0.492088055688788 0.0
0.4005883523205732 0.7121294304856254 0.0
0.3551392316798573 0.4864133323669936 0.0
0.2501727034998737 0.4443035857235296 0.0
0.857938396055507 0.7390317828783199 0.0
0.9245301815433076 0.8668102132501951 0.0
0.5702050292970205 0.7323438487067678 0.0
1.111607633075016 0.759318252473435 0.0
0.6317193755596126 0.7853891653733797 0.0
0.7921381265818805 0.7497379312370454 0.0
1.088942426366261 0.7015435214091311 0.0
0.5818207607488639 0.5352340257544296 0.0
0.4203532416309484 0.6369649631143086 0.0
0.4854818714173937 0.5131439318707094 0.0
0.4475429831528036 0.5690430472086269 0.0
0.8968753306595262 0.8225547516037004 0.0
0.6339557898063448 0.8543470494763272 0.0
0.3416564411796998 0.6516449771136894 0.0
1.082970576264455 0.7856036465430698 0.0
0.2255204648032354 0.5229464838393291 0.0
0.7335043541589261 0.9012744999286941 0.0
0.9097052989734319 0.6921177492721042 0.0
0.5363428275528405 0.6992389299864537 0.0
0.9657777897300287 0.8588269742066746 0.0
1.025947476617909 0.7556651119714124 0.0
0.1090829970454354 0.3226173037985549 0.0
0.4836644525169279 0.7663103281018557 0.0
0.6910856326166581 0.777867529208468 0.0
0.6694391877434097 0.5946719355048008 0.0
0.2954883530575775 0.4501042133334518 0.0
0.6746032498128595 0.6643957640016517 0.0
1.054636636429828 0.6974583960183274 0.0
0.8939255235163368 0.7470597914537064 0.0
0.3749741568555516 0.6190655430398917 0.0
1.204101441114554 0.6801433534918062 0.0
0.6130053345415899 0.6785345531932346 0.0
0.7679719108452487 0.8562682874000032 0.0
0.9710820219997449 0.8008372590855476 0.0
0.1608022352294362 0.4242591696906621 0.0
0.2865399820604418 0.5141369963640697 0.0
0.1962258775846918 0.4008383427744516 0.0
0.6210920174972845 0.5516143721732873 0.0
0.4843009180093644 0.6583977883024127 0.0
0.5695029195102991 0.8267073580550881 0.0
0.9562891163300477 0.7436031251145003 0.0
0.4174190173896447 0.5044019081507806 0.0
0.410860431802698 0.5535781448116232 0.0
0.8709320861791604 0.9002602580953145 0.0
0.427354757192076 0.7399041791280969 0.0
0.7107884943357746 0.7172753954970394 0.0
1.030382288537246 0.8267335242583146 0.0
0.7737440530215844 0.7115751739064536 0.0
0.8042035044852396 0.9123190309183211 0.0
0.0480920891272324 0.2181807374272496 0.0
0.3695079235280397 0.6886893012630373 0.0
0.773516204411121 0.7830673827025234 0.0
0.302776671534508 0.6210168062901616 0.0
0.7150573728414059 0.6149413270404035 0.0
0.5863276441271683 0.769748656022605 0.0
1.143752049005473 0.6780480059671409 0.0
0.6477132714923303 0.7318578097016951 0.0
0.8380052680878572 0.8531154611905379 0.0
0.5966224054445893 0.6051703156405629 0.0
0.3207240819522855 0.5772784374275386 0.0
0.3520131451607586 0.5263918604440553 0.0
0.8573528491808811 0.6709738722470224 0.0
0.1797236573643203 0.460867988842514 0.0
0.5540828191547277 0.6661566975721369 0.0
1.158039843450239 0.7357536542887966 0.0
0.08638006908591334 0.286237566592474 0.0
0.790861820497242 0.6466611559014377 0.0
0.5362079962218838 0.8121454698907893 0.0
0.9405172130232713 0.6862060282668497 0.0
0.6039359324506977 0.711463595189489 0.0
0.4440093493753478 0.6096873538428137 0.0
0.5500746279087338 0.7620941994763282 0.0
0.2578504496023611 0.5739900063885278 0.0
0.502526452350101 0.6209820553182169 0.0
0.6799833858912959 0.7033681517905728 0.0
0.7183487148906835 0.7518430858176317 0.0
0.8006701240044786 0.8118713608014352 0.0
0.1304684854221093 0.3934039266496895 0.0
1.00789495394612 0.7937868725857601 0.0
0.696960396255943 0.893370944718147 0.0
0.8258315165019564 0.7538365084989149 0.0
0.8462950259502577 0.775614153529746 0.0
0.4082018839227037 0.6749460331934272 0.0
0.7025889307788081 0.8378536687159448 0.0
0.4666676520109517 0.6984557076050861 0.0
[...]
POINT_DATA 531

VECTORS Velocity float
0.0000000000000000 1.0000000000000000 0.0
0.0000000000000000 1.0000000000000000 0.0
2.6381757784764197 -0.9593281876014668 0.0
1.7977371581430064 1.0252134583499382 0.0
0.0000000000000000 1.0000000000000000 0.0
0.0000000000000000 1.0000000000000000 0.0
0.0000000000000000 1.0000000000000000 0.0
0.0000000000000000 1.0000000000000000 0.0
0.0000000000000000 1.0000000000000000 0.0
0.0000000000000000 1.0000000000000000 0.0
0.0000000000000000 1.0000000000000000 0.0
0.0000000000000000 1.0000000000000000 0.0
0.0000000000000000 1.0000000000000000 0.0
0.0000000000000000 1.0000000000000000 0.0
0.0000000000000000 1.0000000000000000 0.0
0.0000000000000000 1.0000000000000000 0.0
0.0000000000000000 1.0000000000000000 0.0
0.0000000000000000 1.0000000000000000 0.0
0.0000000000000000 1.0000000000000000 0.0
0.0000000000000000 1.0000000000000000 0.0
0.0000000000000000 0.0000000000000000 0.0
0.0000000000000000 0.0000000000000000 0.0
0.0000000000000000 0.0000000000000000 0.0
0.0000000000000000 0.0000000000000000 0.0
0.0000000000000000 0.0000000000000000 0.0
0.0000000000000000 0.0000000000000000 0.0
0.0000000000000000 0.0000000000000000 0.0
0.0000000000000000 0.0000000000000000 0.0
0.0000000000000000 0.0000000000000000 0.0
0.0000000000000000 0.0000000000000000 0.0
0.0000000000000000 0.0000000000000000 0.0
0.0000000000000000 0.0000000000000000 0.0
0.0000000000000000 0.0000000000000000 0.0
0.0000000000000000 0.0000000000000000 0.0
0.0000000000000000 0.0000000000000000 0.0
0.0000000000000000 0.0000000000000000 0.0
0.0000000000000000 0.0000000000000000 0.0
0.0000000000000000 0.0000000000000000 0.0
0.0000000000000000 0.0000000000000000 0.0
2.6783118808621564 -1.7943530717977374 0.0
3.6710937397387160 -2.3041142021211249 0.0
3.7607087401311143 -2.2280365160265081 0.0
3.7588759942746721 -1.9696929638386436 0.0
3.8285973131570623 -1.7387174305222528 0.0
3.8973706505449868 -1.4146088665179672 0.0
3.9268619333474009 -1.2291547551178219 0.0
3.9965357706443307 -0.9837697292980507 0.0
3.9120544078320916 -0.6597191219931695 0.0
3.8685748121655164 -0.3935116372127929 0.0
3.7352059030826079 -0.1153917071172759 0.0
3.5382190362538131 0.1557140041997708 0.0
3.3866362847986142 0.3700363454177745 0.0
3.0914540836700461 0.5856160221114562 0.0
2.5511610335151023 1.0808868217060412 0.0
1.7901856985430256 0.9492520676175572 0.0
0.0000000000000000 0.0000000000000000 0.0
0.0000000000000000 0.0000000000000000 0.0
0.0000000000000000 0.0000000000000000 0.0
0.0000000000000000 0.0000000000000000 0.0
0.0000000000000000 0.0000000000000000 0.0
0.0000000000000000 0.0000000000000000 0.0
0.0000000000000000 0.0000000000000000 0.0
0.0000000000000000 0.0000000000000000 0.0
0.0000000000000000 0.0000000000000000 0.0
0.0000000000000000 0.0000000000000000 0.0
0.0000000000000000 0.0000000000000000 0.0
0.0000000000000000 0.0000000000000000 0.0
0.0000000000000000 0.0000000000000000 0.0
0.0000000000000000 0.0000000000000000 0.0
0.0000000000000000 0.0000000000000000 0.0
0.0000000000000000 0.0000000000000000 0.0
0.0000000000000000 0.0000000000000000 0.0
0.0000000000000000 0.0000000000000000 0.0
0.0000000000000000 0.0000000000000000 0.0
0.0000000000000000 0.0000000000000000 0.0
0.0000000000000000 0.0000000000000000 0.0
0.0000000000000000 0.0000000000000000 0.0
0.0000000000000000 0.0000000000000000 0.0
0.0000000000000000 0.0000000000000000 0.0
0.0000000000000000 0.0000000000000000 0.0
0.0000000000000000 0.0000000000000000 0.0
0.0000000000000000 0.0000000000000000 0.0
0.0000000000000000 0.0000000000000000 0.0
3.8654952983761697 2.5645375123991658 0.0
4.1905555058548662 2.0014936571039939 0.0
3.9054924727381639 1.1071264902452675 0.0
3.8172969428115135 2.1961612940822683 0.0
3.7890669589368371 2.9168000110207521 0.0
3.5542796540335213 0.1333994489917382 0.0
3.9030492156079841 3.4886158377399688 0.0
3.6821266842398104 2.4269361632508413 0.0
3.6680396667671928 1.8054073441759320 0.0
3.5613724047108430 1.7028811880403361 0.0
2.9091651598418515 1.8746163186872769 0.0
3.4557254171465601 1.3317646667240750 0.0
3.2942240702135210 1.6862321673569867 0.0
3.1692413076659021 2.3884920794461912 0.0
3.2618742720717768 2.4616934468418896 0.0
3.1074871548540535 -0.4424258744879425 0.0
3.6072298030465242 3.8537723636018826 0.0
2.5346768296352469 2.1283557800587167 0.0
2.9969270483620907 1.4088353531849298 0.0
3.8147057197318999 0.5400151098399056 0.0
2.5500343485721064 0.3911505883594561 0.0
3.5436852104008576 1.1502589548038378 0.0
2.8084251292148927 2.6575833104448954 0.0
3.4915496559799721 4.5883113645612124 0.0
3.6130094896318017 2.6377656724293259 0.0
2.3734731981327752 1.3968748676841947 0.0
4.2363407695259285 2.2429758634797370 0.0
3.9099264157089997 2.5482995006819511 0.0
2.8970010642206723 -0.7760234381678750 0.0
4.0405772172842092 1.6650114525062234 0.0
2.5363562228746312 2.0764129460330754 0.0
2.6195324437490259 1.0628577931751859 0.0
3.8397847523844399 2.6918111082764731 0.0
2.7254090531620698 1.3685069152526332 0.0
3.7995108491719729 -0.3104985730813869 0.0
2.0530383206392036 1.5007123644322931 0.0
2.4229855830701021 0.6447124410861071 0.0
2.2552724305798968 0.0738143997459475 0.0
4.0536743977724203 2.4082119004675655 0.0
2.6622226555227133 1.6995795281083119 0.0
2.7972609812133800 2.4363248849457535 0.0
2.9348505083131307 4.7380933736543236 0.0
2.4724196290730927 1.3189365067689589 0.0
2.5270165112025218 2.8886749660176254 0.0
2.2081519012577275 1.6846478847197748 0.0
3.2762924552242652 3.5015002401137258 0.0
1.8693142489064649 1.7744774571768882 0.0
3.8576239327701618 0.0068874122207729 0.0
3.4964776061565943 2.3080503621245785 0.0
3.7559234995596524 2.5323919955605660 0.0
3.9588651886558575 1.8838371220533621 0.0
3.9681615051156114 1.9595984672112301 0.0
3.6984835192033443 0.4743252069410728 0.0
3.0362035672119383 1.5103087726912094 0.0
1.6521119373521960 1.6872774749152670 0.0
2.3617930087740100 1.1168171087746583 0.0
2.8831338597675278 -1.0287815249815666 0.0
3.6430173809942499 2.5164202142412004 0.0
3.8720634328614905 1.9407799764826139 0.0
1.5809135834511037 0.0967539876487434 0.0
2.0462092243187140 1.0788643206498403 0.0
3.7252344164721727 3.1771733253565122 0.0
1.1977325862047070 0.4625686653600269 0.0
1.8313955209408392 3.2599629582533058 0.0
1.5531384849956298 0.9083470951386793 0.0
3.8768604112040714 1.4483947400004094 0.0
1.8404932688411000 2.2652617304706748 0.0
1.1286847382596656 0.7615907693712026 0.0
2.1100921476070709 2.3887412244016581 0.0
2.7824555735002234 3.3830186820778989 0.0
3.4654482124825567 1.0764196506325998 0.0
3.6176815798792199 0.6566451380956793 0.0
3.5798586382364066 2.2601958577906816 0.0
3.7540337964916128 -1.0573551281161144 0.0
3.3651402082487141 1.8022584375707011 0.0
4.0032519244046991 1.6698453572009284 0.0
1.7083155386939137 -0.3209098354001735 0.0
1.4555052253704484 1.5276406963191793 0.0
3.4291927633776731 2.6194956351565342 0.0
1.3011180217065332 1.7931057462008424 0.0
3.5757249163818954 2.7074022830193472 0.0
3.8115919231080206 1.0090597385937772 0.0
1.5486930477417105 0.8197520581408114 0.0
1.3833291291680287 1.3298496388740895 0.0
3.8767029841814304 -0.7984028434720718 0.0
1.8251538650293500 1.8459504724127391 0.0
1.5715172439029563 0.8597983366529035 0.0
1.4005037374766092 0.1667426843573961 0.0
3.6801472324035918 2.3795850475919629 0.0
3.7718644699201671 0.2283053596191736 0.0
3.2671328999282467 -0.2261929536413397 0.0
1.5934202025965249 3.1018902221873645 0.0
1.2539303864980840 1.0641353434531040 0.0
4.0652580248140247 2.0770839732785560 0.0
1.3377140880485727 0.8158069216658282 0.0
1.5255238726599785 2.7798676875061412 0.0
3.6203688365772582 2.0636177946726240 0.0
1.4150145231640325 -0.2547441543023985 0.0
3.4754811284354479 0.7974648794081600 0.0
3.1621821722547829 2.5291127093734969 0.0
2.6887408861056827 -1.4018520059302242 0.0
3.9601219275143782 2.5425266896482643 0.0
3.4400710358162203 1.8866474971097642 0.0
3.7973297872228065 0.2605676382320677 0.0
2.0001121700667701 3.0558101335476540 0.0
3.6216108658155060 3.6804570309532472 0.0
2.4432911976280822 4.0337548425438277 0.0
0.8716013516196592 0.8302188536658552 0.0
3.6962948946290815 2.5483194866879573 0.0
1.1353069837850793 0.5997958832076495 0.0
3.0531931969903634 0.2852355036722115 0.0
2.1094131360605863 2.1995456094600789 0.0
3.5756255271601778 2.8237982914253199 0.0
3.0072713818015226 1.0222707571294507 0.0
0.8687627436699976 0.6317174005750770 0.0
4.0856840368290843 1.9633747100517775 0.0
3.9371306529662045 -0.3131570898388141 0.0
3.5958330189979431 1.5648561825624234 0.0
2.2948223221203921 1.5552345389577600 0.0
0.7641785980794386 3.4574472167726693 0.0
1.0103444074818222 0.8770994961470411 0.0
4.1362658385007531 1.8619838606941188 0.0
1.3122012008747101 1.0520146650343558 0.0
1.2386466600102508 0.4800566028087933 0.0
3.2104726947306794 1.9011023133728402 0.0
1.4358513563073241 -0.2911845254560345 0.0
4.1590262706287540 2.3724799127576994 0.0
3.6272059445662745 1.5650313079696199 0.0
3.1390680975086172 2.2263042256195629 0.0
2.9016301007616021 3.0184848382742957 0.0
3.9123041258093063 3.2635612718276126 0.0
1.0495636975124762 0.3191514463217233 0.0
1.7259580726298969 2.4100527187053546 0.0
3.9272864991939560 2.5206859937392481 0.0
3.6850946901880008 -1.3532780035407672 0.0
1.2131508552210846 3.3076052054698657 0.0
1.2231542355928322 0.4926349348940365 0.0
1.0141190517467611 0.4046439161347848 0.0
1.0113558689613098 0.0583700768681757 0.0
4.0140515848414999 2.4235935950813263 0.0
3.7814739851249493 2.8245569487179467 0.0
2.8425924583909632 1.6913374082073140 0.0
1.0339284705060030 1.4915490337497335 0.0
3.8507365421617421 2.6067277006558904 0.0
4.0638759981194861 2.2757730587111098 0.0
4.2078264441366198 2.0818739311751764 0.0
3.9733013774099142 1.7702019861577791 0.0
1.6336198510478259 2.3201438126802620 0.0
3.7951597329282132 -0.0605061958617693 0.0
1.2839999272388272 0.6352412382905568 0.0
3.8756495257523582 1.4569735197251885 0.0
3.9242324124410115 1.3309962906570230 0.0
2.5859302837154878 1.8097240289433552 0.0
3.1493987587495029 1.5111703461969801 0.0
3.0933424343287879 2.1352561143466895 0.0
3.0571819855235862 1.9511264902053285 0.0
3.3797904715669800 1.7025150565877400 0.0
3.9804655272904239 2.2106377020913413 0.0
1.1610873936648691 0.1674212756214297 0.0
2.8851595592614827 2.1106986144685300 0.0
2.5805727160330192 0.8738849648165880 0.0
2.7972619476372991 2.0410853488544971 0.0
2.6167952896748359 -0.0031964992142560 0.0
4.0054230941697559 -0.5999018488016049 0.0
0.9414447191121071 0.9605356805344366 0.0
2.3134486673702139 -1.0757948910186008 0.0
3.9278910167919556 2.5444905242951692 0.0
2.8544683845308905 1.4383181433596790 0.0
3.0999153286491383 1.7617421109179308 0.0
3.4900358682708066 3.9794938394685366 0.0
0.5503098491314099 1.6430219980559750 0.0
3.6997172762621613 2.6934167429265843 0.0
1.5367132900990295 1.8386474810373574 0.0
2.9692668696042812 -0.6521451038445809 0.0
3.7995417739174666 0.8072001192336576 0.0
3.5511529876773511 2.4401780793279806 0.0
0.6685454777976267 0.5332164144507583 0.0
1.1962107646526545 2.2389432307549071 0.0
3.1085101123405572 2.7647765330790062 0.0
1.7178753848535571 2.9229647779122470 0.0
1.0166462331537660 1.8850694699344803 0.0
0.8455303365298148 1.5824961810361291 0.0
1.6638495148261272 3.0814023366642624 0.0
1.4765964402419438 1.1806143654090200 0.0
2.1901391239590762 -1.4151154042596075 0.0
2.1707003192367256 1.6386084579200928 0.0
0.7123941313883505 0.3096207618473308 0.0
0.7861577814333107 0.5981398481027370 0.0
3.9055088506506674 3.4644087848045237 0.0
1.2993345607147935 -0.0721027137283778 0.0
3.2259216257391610 0.8218406675163266 0.0
3.8485840438330228 -0.0499415338591229 0.0
3.8075389924757221 2.3667073156060283 0.0
1.1250736691701506 3.3292141003198261 0.0
2.7257802544880909 0.7060941043266791 0.0
0.6343089070219229 0.3847354806144921 0.0
3.5261693499422897 -0.3733938102168196 0.0
3.6420039255545693 2.6553609813650425 0.0
0.8268739485076161 -0.0086732690188760 0.0
2.7187942287441391 -0.2112674687110693 0.0
2.7686293749311166 1.4915805518788967 0.0
3.6936905517285608 -1.7100203692839009 0.0
0.8870532966434594 0.1124884273118008 0.0
2.5487442463120229 1.5924130973635435 0.0
2.8676830873589561 2.3830048615735571 0.0
2.2609259910178152 1.9391707791484845 0.0
3.8197695956385678 2.5176283187562865 0.0
3.7758713737104772 1.8731868283761985 0.0
2.6174133830554513 1.1027068235403219 0.0
3.7022247422978372 3.7879815219093800 0.0
4.1002203979580134 1.9951827917051062 0.0
0.9757689167188758 0.6106402798484826 0.0
3.1438087913926815 3.2443892432170851 0.0
2.7825869890096184 1.6564777112216533 0.0
4.1385574207274765 2.0899772438289039 0.0
4.0826562572178613 1.8895716407969376 0.0
3.0833209274420268 2.2148660229726680 0.0
3.6794061260234106 2.5316165519977964 0.0
1.2682039252908783 -0.7672347022106526 0.0
3.4475971104669765 0.6541656743399045 0.0
3.8343440172110861 0.2098916912296816 0.0
1.6698841684277876 4.0683834077554444 0.0
2.2971806864970521 1.9072038561283411 0.0
0.7313206193016903 0.6052152864546325 0.0
3.8838751196469081 2.5535330639994487 0.0
4.1828379113038459 2.0100461376875809 0.0
3.9042331032827442 1.1311382007889874 0.0
3.7807118158739579 2.1741485692623761 0.0
3.7989645816814295 2.8961038222482052 0.0
3.5553030934717218 0.1494001010124396 0.0
3.9083289979113078 3.4781268911651977 0.0
3.7260619693202477 2.4533915157589514 0.0
3.6219096451032908 1.8192419344040818 0.0
3.6120378539612692 1.7324927467503102 0.0
2.8637100755217872 1.8383840089259289 0.0
3.4994378575656291 1.3559707119774054 0.0
3.2397143026187853 1.6631100384266504 0.0
3.1424321989529229 2.3508256148179307 0.0
3.3056216139768990 2.4582860087307421 0.0
3.1083506044567590 -0.4397614925229891 0.0
3.6081073195298123 3.8522111965129571 0.0
2.5825817400579223 2.1465527379746323 0.0
2.9451742734584792 1.3972011425660129 0.0
3.7965207984264309 0.5579022530220390 0.0
2.5745343471278241 0.4046562242343731 0.0
3.5096431799192174 1.1644353272635439 0.0
2.8022045023774824 2.6386681158375422 0.0
3.4915328584499172 4.5882693449661511 0.0
3.6314996096458008 2.6332661304293352 0.0
2.3234510048682933 1.3677123675062761 0.0
4.2369033152805136 2.2467462336791844 0.0
3.9037890701405948 2.5363208365087120 0.0
2.8969185289759967 -0.7761792020677354 0.0
4.0354689669269410 1.6890752078247031 0.0
2.5180618415298208 2.0487229918352514 0.0
2.6706784993117205 1.0850931181127357 0.0
3.8537754824536998 2.6700742725891051 0.0
2.7806882702635534 1.3976571688449346 0.0
3.7965945192911046 -0.3034521996357843 0.0
2.0148090159151337 1.4703085602118366 0.0
2.4623367875491682 0.6581313423418669 0.0
2.2617277498305759 0.0801237176186008 0.0
4.0766470904179011 2.4229002993421491 0.0
2.6209308587746114 1.6974083599365775 0.0
2.8300028363188856 2.4363781597764440 0.0
2.9347984018995708 4.7381179982113082 0.0
2.4223176858246536 1.2927508180266873 0.0
2.5271606026712026 2.8849952205073355 0.0
2.2554809068055937 1.7176759054573243 0.0
3.2805448180703416 3.5006450191678566 0.0
1.9115438626865098 1.7811680801773146 0.0
3.8466728859462354 0.0182623495249907 0.0
3.4632341539209182 2.2728853789604977 0.0
3.7918550248173526 2.5398763192644798 0.0
3.9957417960515262 1.9040282149651930 0.0
3.9264215172132420 1.9652220200035564 0.0
3.6953042841030621 0.4935648830973421 0.0
3.0060787113399523 1.5166490403332036 0.0
1.6491457241795870 1.6807321674689879 0.0
2.3128510147928116 1.0976253030895944 0.0
2.8830294702886392 -1.0290080780661550 0.0
3.6797701683486053 2.5177800493898781 0.0
3.8247273881072892 1.9259661216376585 0.0
1.5965397437950024 0.1056164018447124 0.0
2.0918879001560158 1.1014370056545271 0.0
3.7323772658760204 3.1615791435142229 0.0
1.2293190352425090 0.4746352954753830 0.0
1.8313816307458495 3.2599809039022487 0.0
1.5171617912979367 0.8853254716485593 0.0
3.8494829815273359 1.4702964078891576 0.0
1.8405737988365367 2.2650535640601732 0.0
1.1083429956694786 0.7440488257049349 0.0
2.1199927841319930 2.3873252334297321 0.0
2.7829315372206982 3.3826846917348861 0.0
3.4945972226309054 1.0996530076198077 0.0
3.5968021586609265 0.6678797493480846 0.0
3.5431624254841907 2.2298212828114701 0.0
3.7544307676508906 -1.0573225622208091 0.0
3.3123066226658429 1.7760895529755485 0.0
4.0264347957822881 1.6919088261169075 0.0
1.7080636621582732 -0.3204889448100807 0.0
1.4895211126934822 1.5423628636124500 0.0
3.4197847038186815 2.5891862548984603 0.0
1.3286511289320073 1.7956171318912257 0.0
3.6053448921550424 2.6954923074748840 0.0
3.7878655390585285 1.0315284334701751 0.0
1.5105604819981975 0.8007844368746297 0.0
1.3723826691429861 1.3138185056491691 0.0
3.8767126635365168 -0.7962283722988411 0.0
1.8252394209993499 1.8448439658697553 0.0
1.5418869114383971 0.8543882387622139 0.0
1.4245566516291539 0.1748657007900818 0.0
3.6505560218921440 2.3515901963055321 0.0
3.7588139670334879 0.2366377979811580 0.0
3.2692249015863619 -0.2154319863068549 0.0
1.5934179684846239 3.1018892044626902 0.0
1.2225197718544221 1.0373204334731170 0.0
4.0313210253359077 2.0668972119615496 0.0
1.3752518199865285 0.8379921699970435 0.0
1.5268387487590696 2.7800146547721178 0.0
3.6711963583094764 2.0923150670601287 0.0
1.4165640404255073 -0.2525582377035914 0.0
3.4910543255157300 0.8192338439694088 0.0
3.1562966444532008 2.5015638496671269 0.0
2.6887276207658819 -1.4019257456428507 0.0
3.9810968270120330 2.5523688927256187 0.0
3.3881332704636815 1.8851691020053305 0.0
3.7881351576598039 0.2756949231194440 0.0
2.0001112529682756 3.0559341584136126 0.0
3.6244956514151458 3.6762413707638713 0.0
2.4431662560184444 4.0337653329403826 0.0
0.8970259691178182 0.8511565440427231 0.0
3.6859273100670786 2.5182643662214170 0.0
1.1036022170109803 0.5833816101327792 0.0
3.0662133671616205 0.3007282248535629 0.0
2.1301682839473628 2.2001267843738113 0.0
3.5999933865869727 2.8134707561579129 0.0
2.9860209659902575 1.0302096813424784 0.0
0.8479166221694294 0.6149010722024150 0.0
4.1183125330182193 1.9836790105796844 0.0
3.9317215575891464 -0.3079455649923922 0.0
3.6420945404488902 1.5892931489572322 0.0
2.2719967695186334 1.5561823828442998 0.0
0.7641785980794387 3.4574472167726693 0.0
0.9950634756958439 0.8603241952262833 0.0
4.1250901659570527 1.8770804112841148 0.0
1.3071994609573190 1.0436441794527755 0.0
1.2756554131528079 0.4963331604155202 0.0
3.1577138265908147 1.8703004870571533 0.0
1.4354993069852313 -0.2912192250196934 0.0
4.1553492871394582 2.3731607285679228 0.0
3.5839729627653067 1.5785443485241148 0.0
3.1901150298912846 2.2522965885169359 0.0
2.8982067580686266 3.0038680804450784 0.0
3.9256440149487979 3.2575177201842576 0.0
1.0770815655683934 0.3279429278626366 0.0
1.7260499317933036 2.4101692136339934 0.0
3.9326149844216922 2.5108724654993813 0.0
3.6853386403474375 -1.3536235225945035 0.0
1.2131518434754489 3.3076051744995070 0.0
1.2566316976577852 0.5067965366858093 0.0
0.9829858952696976 0.3909391790762731 0.0
1.0302334636350203 0.0629118083835893 0.0
4.0061249434655801 2.4126460344635996 0.0
3.7953545634179888 2.7996123269745663 0.0
2.7927155710056590 1.6584638003755883 0.0
1.0325513567135534 1.4874543817656285 0.0
3.8701833596543445 2.5902522226121989 0.0
4.0932119111788792 2.2947276234622063 0.0
4.2136484627212489 2.0895709824862561 0.0
3.9408391251220940 1.7869066764162866 0.0
1.6336038834355204 2.3202044346326729 0.0
3.7901714220997786 -0.0473335829944144 0.0
1.2548029402680345 0.6240831251864538 0.0
3.8956883535556761 1.4814632937485948 0.0
3.9253253399456973 1.3591868852021165 0.0
2.5614059254174517 1.7804705258022029 0.0
3.0949617941063736 1.4964462324521393 0.0
3.0585942327043392 2.0993012876944745 0.0
3.1130911404035420 1.9845914171114765 0.0
3.4331027140938160 1.7275650291481142 0.0
3.9424742154535477 2.1966769760749707 0.0
1.1706049745007332 0.1714270466392534 0.0
2.9347856820385338 2.1154916263404604 0.0
2.6259933837436367 0.8944126325501505 0.0
2.7551677907905492 2.0070533936592136 0.0
2.6273705420354898 0.0086568778707129 0.0
4.0035521082317764 -0.5973160360009604 0.0
0.9408748436373410 0.9588719824226510 0.0
2.3134391067106166 -1.0757948825663970 0.0