# vtk DataFile Version 3.0
LucasCarvalhoTCC Results
ASCII

DATASET POLYDATA
FIELD FieldData 1
TIME 1 1 double
6.9

POINTS 531 float
0.02430399999999999 0.16425 0.0
0.5913384 0.481878 0.0
1.30475 0.591832 0.0
0.774126 0.951272 0.0
0.04779564148251592 0.1966194329439859 0.0
0.0726092153537953 0.2279866320496896 0.0
0.09876577335895967 0.2582426022760065 0.0
0.1262817198684718 0.2872673048853742 0.0
0.1551671626852806 0.3149288071400502 0.0
0.1854238368919928 0.3410826624766006 0.0
0.2170424591499632 0.3655716640299072 0.0
0.2499995164635996 0.3882263409476824 0.0
0.2842534387828506 0.4088665906889567 0.0
0.3197403359862048 0.4273050841371062 0.0
0.3563695945475563 0.4433531534921038 0.0
0.3940201673622058 0.4568300511916809 0.0
0.4325386107291805 0.4675762214989666 0.0
0.4717406913237268 0.4754709112408955 0.0
0.5114182513144845 0.480453442081874 0.0
0.5513531678859215 0.4825464217651069 0.0
0.6182637923774223 0.5096055604109244 0.0
0.647389101376845 0.5350126187545199 0.0
0.6784752958296183 0.5579802184492302 0.0
0.7112421079139344 0.5784810076698811 0.0
0.7454110434104482 0.5965507527581431 0.0
0.7807301979183381 0.6122562812860965 0.0
0.8169827939052532 0.6256694297140926 0.0
0.853985522124928 0.6368498290413532 0.0
0.8915818964261243 0.6458353363890481 0.0
0.9296339776508085 0.6526379336565091 0.0
0.9680139759519513 0.6572432424840469 0.0
1.006596418266983 0.659612648128084 0.0
1.045251165872634 0.6596877658251245 0.0
1.083837680945672 0.657397570658483 0.0
1.122201320191055 0.6526688455666412 0.0
1.160173053543044 0.6454405726452737 0.0
1.197574286953346 0.6356824063786186 0.0
1.23422961949795 0.6234159704281613 0.0
1.26998758503999 0.6087366500005643 0.0
1.285086682927543 0.6256533177085738 0.0
1.263669745906668 0.6583917156018083 0.0
1.240480125919214 0.6898988493917133 0.0
1.215532715641304 0.7200329197235763 0.0
1.188869833862339 0.7486599839005789 0.0
1.160556835593143 0.7756559317113654 0.0
1.130680194163798 0.8009104211039757 0.0
1.099347083827048 0.8243335727704395 0.0
1.066684425336412 0.8458643604021228 0.0
1.03283497048792 0.8654772531176074 0.0
0.9979492572630678 0.8831824104874066 0.0
0.9621749986495024 0.8990166556695112 0.0
0.9256475378616493 0.9130272060048579 0.0
0.8884846540507749 0.9252538945090274 0.0
0.8507866567183312 0.935715378288671 0.0
0.8126405010322847 0.9444016349017643 0.0
0.7365055179612304 0.9396161853607135 0.0
0.699310855231089 0.9266666891603924 0.0
0.6626179171945521 0.9123577070090924 0.0
0.6264901449910028 0.8966765244755546 0.0
0.5909789825447118 0.8796450886595113 0.0
0.556124897941028 0.8613059841617771 0.0
0.5219601957009091 0.8417124664434518 0.0
0.4885110616878257 0.8209207172498462 0.0
0.4558007060429968 0.7989848675704875 0.0
0.4238520247653796 0.775953675763176 0.0
0.3926900138417566 0.7518687036338616 0.0
0.3623437622133722 0.7267636709390595 0.0
0.3328479550295906 0.7006647540504483 0.0
0.3042438201183181 0.6735915983461908 0.0
0.2765795358619001 0.6455588748284606 0.0
0.2499101143933102 0.6165781952942546 0.0
0.2242967982692083 0.5866601984136335 0.0
0.1998060807431611 0.5558166834807132 0.0
0.1765083808984156 0.5240625786010467 0.0
0.154476512720734 0.491417660368959 0.0
0.133784033184808 0.457907916333494 0.0
0.114503564227142 0.4235664945146766 0.0
0.09670517293008124 0.3884342245925089 0.0
0.0804548910754031 0.3525597611689231 0.0
0.06581337946329963 0.3159993090744527 0.0
0.05283482490365372 0.2788161107032479 0.0
0.0415660226296666 0.2410796291505872 0.0
0.03204569406625649 0.2028646095712164 0.0
0.5272009874003867 0.6419624505772817 0.0
0.7421848286576707 0.7716726266421574 0.0
0.8789503364783713 0.7829234141383637 0.0
0.6149390992905563 0.7449438030688011 0.0
0.4064556042659638 0.5942834991165423 0.0
0.9875021850865396 0.7666507358101158 0.0
0.3188065960661005 0.539594034984892 0.0
0.61365100263957 0.6399487878797632 0.0
0.8049090660915541 0.8464379870891131 0.0
0.7099820328572021 0.6828840522539854 0.0
0.5239467234991928 0.7406922291088611 0.0
0.8154056325591208 0.7211774015928547 0.0
0.6676178829014909 0.8152713180209475 0.0
0.4416080359619968 0.674360953773491 0.0
0.489443615375965 0.5654986742123573 0.0
1.076665773779852 0.7387182918829318 0.0
0.250390543112057 0.4877450112830265 0.0
0.5736819937919005 0.5790366884881447 0.0
0.7263706755366466 0.8615301097563091 0.0
0.940143307772686 0.8233944909985552 0.0
0.927065543677544 0.7236459161626674 0.0
0.8744389806957806 0.8609114380468947 0.0
0.336888362650554 0.6081958070931937 0.0
0.2030757334857187 0.4383942902513459 0.0
0.3861483329720647 0.5255533415902591 0.0
0.5621001921466506 0.7923778419149285 0.0
0.6822897332295245 0.7428043323059399 0.0
0.5764061681675353 0.6881266532454204 0.0
1.129195449682892 0.7163224153578123 0.0
0.8157794419559141 0.7831214907157077 0.0
0.3806644703311284 0.6554275822782399 0.0
0.7695737871052837 0.669593045341503 0.0
0.4699375460410929 0.6217118815516158 0.0
0.6830867370872363 0.630350317562806 0.0
1.040416897214502 0.7929392348941093 0.0
0.4604428393605979 0.7321209818568342 0.0
0.8729552856459739 0.7015083313474691 0.0
1.017010765275644 0.7166925631396708 0.0
0.6458785458483771 0.6946878992565794 0.0
0.7733575582969163 0.8941098392103913 0.0
0.4457537579383052 0.5273353624588528 0.0
0.163830623786951 0.3903175742448083 0.0
0.6095823984734953 0.8256600013628639 0.0
0.2618074352614998 0.5435604438425528 0.0
0.6287880420949764 0.5875838132975476 0.0
0.3100402147222924 0.4835410260423071 0.0
0.5422177893302824 0.5343158927797464 0.0
0.9964262112680041 0.8213447667248638 0.0
0.4971609598823845 0.6906859160718212 0.0
0.5740517260168769 0.633982031239429 0.0
0.7423299505107201 0.7218768583704394 0.0
0.767147744476665 0.819658485932403 0.0
0.9427329070375209 0.7774595780066723 0.0
0.8375285793481674 0.8869398470561132 0.0
0.2879426409425497 0.5872676364411625 0.0
0.6797562629663748 0.8647676397847667 0.0
1.171674168522591 0.6949964056806914 0.0
0.5261010885606964 0.6055079299963303 0.0
0.7081534744446967 0.8078672678314597 0.0
0.9681672688626206 0.705385299758921 0.0
0.7364069054947873 0.6432919177737106 0.0
0.363826821075015 0.5678764295233764 0.0
0.826170216989844 0.6605791783255148 0.0
0.1284439337099834 0.3602715082199688 0.0
0.518140828090112 0.783905985497134 0.0
0.8452908336054504 0.8167586152211004 0.0
0.2015204468558833 0.492088055688788 0.0
0.4005883523205732 0.7121294304856254 0.0
0.3551392316798573 0.4864133323669936 0.0
0.2501727034998737 0.4443035857235296 0.0
0.857938396055507 0.7390317828783199 0.0
0.9245301815433076 0.8668102132501951 0.0
0.5702050292970205 0.7323438487067678 0.0
1.111607633075016 0.759318252473435 0.0
0.6317193755596126 0.7853891653733797 0.0
0.7921381265818805 0.7497379312370454 0.0
1.088942426366261 0.7015435214091311 0.0
0.5818207607488639 0.5352340257544296 0.0
0.4203532416309484 0.6369649631143086 0.0
0.4854818714173937 0.5131439318707094 0.0
0.4475429831528036 0.5690430472086269 0.0
0.8968753306595262 0.8225547516037004 0.0
0.6339557898063448 0.8543470494763272 0.0
0.3416564411796998 0.6516449771136894 0.0
1.082970576264455 0.7856036465430698 0.0
0.2255204648032354 0.5229464838393291 0.0
0.7335043541589261 0.9012744999286941 0.0
0.9097052989734319 0.6921177492721042 0.0
0.5363428275528405 0.6992389299864537 0.0
0.9657777897300287 0.8588269742066746 0.0
1.025947476617909 0.7556651119714124 0.0
0.1090829970454354 0.3226173037985549 0.0
0.4836644525169279 0.7663103281018557 0.0
0.6910856326166581 0.777867529208468 0.0
0.6694391877434097 0.5946719355048008 0.0
0.2954883530575775 0.4501042133334518 0.0
0.6746032498128595 0.6643957640016517 0.0
1.054636636429828 0.6974583960183274 0.0
0.8939255235163368 0.7470597914537064 0.0
0.3749741568555516 0.6190655430398917 0.0
1.204101441114554 0.6801433534918062 0.0
0.6130053345415899 0.6785345531932346 0.0
0.7679719108452487 0.8562682874000032 0.0
0.9710820219997449 0.8008372590855476 0.0
0.1608022352294362 0.4242591696906621 0.0
0.2865399820604418 0.5141369963640697 0.0
0.1962258775846918 0.4008383427744516 0.0
0.6210920174972845 0.5516143721732873 0.0
0.4843009180093644 0.6583977883024127 0.0
0.5695029195102991 0.8267073580550881 0.0
0.9562891163300477 0.7436031251145003 0.0
0.4174190173896447 0.5044019081507806 0.0
0.410860431802698 0.5535781448116232 0.0
0.8709320861791604 0.9002602580953145 0.0
0.427354757192076 0.7399041791280969 0.0
0.7107884943357746 0.7172753954970394 0.0
1.030382288537246 0.8267335242583146 0.0
0.7737440530215844 0.7115751739064536 0.0
0.8042035044852396 0.9123190309183211 0.0
0.0480920891272324 0.2181807374272496 0.0
0.3695079235280397 0.6886893012630373 0.0
0.773516204411121 0.7830673827025234 0.0
0.302776671534508 0.6210168062901616 0.0
0.7150573728414059 0.6149413270404035 0.0
0.5863276441271683 0.769748656022605 0.0
1.143752049005473 0.6780480059671409 0.0
0.6477132714923303 0.7318578097016951 0.0
0.8380052680878572 0.8531154611905379 0.0
0.5966224054445893 0.6051703156405629 0.0
0.3207240819522855 0.5772784374275386 0.0
0.3520131451607586 0.5263918604440553 0.0
0.8573528491808811 0.6709738722470224 0.0
0.1797236573643203 0.460867988842514 0.0
0.5540828191547277 0.6661566975721369 0.0
1.158039843450239 0.7357536542887966 0.0
0.08638006908591334 0.286237566592474 0.0
0.790861820497242 0.6466611559014377 0.0
0.5362079962218838 0.8121454698907893 0.0
0.9405172130232713 0.6862060282668497 0.0
0.6039359324506977 0.711463595189489 0.0
0.4440093493753478 0.6096873538428137 0.0
0.5500746279087338 0.7620941994763282 0.0
0.2578504496023611 0.5739900063885278 0.0
0.502526452350101 0.6209820553182169 0.0
0.6799833858912959 0.7033681517905728 0.0
0.7183487148906835 0.7518430858176317 0.0
0.8006701240044786 0.8118713608014352 0.0
0.1304684854221093 0.3934039266496895 0.0
1.00789495394612 0.7937868725857601 0.0
0.696960396255943 0.893370944718147 0.0
0.8258315165019564 0.7538365084989149 0.0
0.8462950259502577 0.775614153529746 0.0
0.4082018839227037 0.6749460331934272 0.0
0.7025889307788081 0.8378536687159448 0.0
0.4666676520109517 0.6984557076050861 0.0
[...]
POINT_DATA 531

VECTORS Velocity float
0.0000000000000000 1.0000000000000000 0.0
0.0000000000000000 1.0000000000000000 0.0
2.6381948226660099 -0.9593265442987936 0.0
1.7919210776010484 1.0226888356093482 0.0
0.0000000000000000 1.0000000000000000 0.0
0.0000000000000000 1.0000000000000000 0.0
0.0000000000000000 1.0000000000000000 0.0
0.0000000000000000 1.0000000000000000 0.0
0.0000000000000000 1.0000000000000000 0.0
0.0000000000000000 1.0000000000000000 0.0
0.0000000000000000 1.0000000000000000 0.0
0.0000000000000000 1.0000000000000000 0.0
0.0000000000000000 1.0000000000000000 0.0
0.0000000000000000 1.0000000000000000 0.0
0.0000000000000000 1.0000000000000000 0.0
0.0000000000000000 1.0000000000000000 0.0
0.0000000000000000 1.0000000000000000 0.0
0.0000000000000000 1.0000000000000000 0.0
0.0000000000000000 1.0000000000000000 0.0
0.0000000000000000 1.0000000000000000 0.0
0.0000000000000000 0.0000000000000000 0.0
0.0000000000000000 0.0000000000000000 0.0
0.0000000000000000 0.0000000000000000 0.0
0.0000000000000000 0.0000000000000000 0.0
0.0000000000000000 0.0000000000000000 0.0
0.0000000000000000 0.0000000000000000 0.0
0.0000000000000000 0.0000000000000000 0.0
0.0000000000000000 0.0000000000000000 0.0
0.0000000000000000 0.0000000000000000 0.0
0.0000000000000000 0.0000000000000000 0.0
0.0000000000000000 0.0000000000000000 0.0
0.0000000000000000 0.0000000000000000 0.0
0.0000000000000000 0.0000000000000000 0.0
0.0000000000000000 0.0000000000000000 0.0
0.0000000000000000 0.0000000000000000 0.0
0.0000000000000000 0.0000000000000000 0.0
0.0000000000000000 0.0000000000000000 0.0
0.0000000000000000 0.0000000000000000 0.0
0.0000000000000000 0.0000000000000000 0.0
2.6783028958774762 -1.7943080970380254 0.0
3.6706636309953344 -2.3036134028945914 0.0
3.7614643336312232 -2.2270415429599910 0.0
3.7624969675262308 -1.9756847497058725 0.0
3.8566780068994753 -1.7642511484617569 0.0
3.9674532171652719 -1.4696783176375765 0.0
4.0352642291956897 -1.3240742528374603 0.0
4.1764376061719890 -1.1064670034643080 0.0
4.1847350590653205 -0.8234550053578110 0.0
4.1808043307064882 -0.5632928259191109 0.0
4.0576090045188753 -0.2691168358424432 0.0
3.8389710175207918 0.0326847531643012 0.0
3.6441396796415328 0.2677782244490052 0.0
3.2692847008316912 0.5243660272831535 0.0
2.6259898160831168 1.0864467877695794 0.0
1.7650293504456045 0.9327215959926509 0.0
0.0000000000000000 0.0000000000000000 0.0
0.0000000000000000 0.0000000000000000 0.0
0.0000000000000000 0.0000000000000000 0.0
0.0000000000000000 0.0000000000000000 0.0
0.0000000000000000 0.0000000000000000 0.0
0.0000000000000000 0.0000000000000000 0.0
0.0000000000000000 0.0000000000000000 0.0
0.0000000000000000 0.0000000000000000 0.0
0.0000000000000000 0.0000000000000000 0.0
0.0000000000000000 0.0000000000000000 0.0
0.0000000000000000 0.0000000000000000 0.0
0.0000000000000000 0.0000000000000000 0.0
0.0000000000000000 0.0000000000000000 0.0
0.0000000000000000 0.0000000000000000 0.0
0.0000000000000000 0.0000000000000000 0.0
0.0000000000000000 0.0000000000000000 0.0
0.0000000000000000 0.0000000000000000 0.0
0.0000000000000000 0.0000000000000000 0.0
0.0000000000000000 0.0000000000000000 0.0
0.0000000000000000 0.0000000000000000 0.0
0.0000000000000000 0.0000000000000000 0.0
0.0000000000000000 0.0000000000000000 0.0
0.0000000000000000 0.0000000000000000 0.0
0.0000000000000000 0.0000000000000000 0.0
0.0000000000000000 0.0000000000000000 0.0
0.0000000000000000 0.0000000000000000 0.0
0.0000000000000000 0.0000000000000000 0.0
0.0000000000000000 0.0000000000000000 0.0
4.0084944187275688 2.6018802120406859 0.0
4.2968111551146526 2.1811740278054841 0.0
3.9017753342989647 1.1937173894465991 0.0
3.8302606931085768 2.2041650449473824 0.0
3.8213297865828300 2.9197158034072221 0.0
3.4132002232409393 0.0622974991760905 0.0
3.9089748123483528 3.4758398457045550 0.0
3.7901414636897939 2.4477201787654304 0.0
3.7653613873738769 1.9841264606021431 0.0
3.5810353399169315 1.7480021726984825 0.0
2.8327621479709642 1.7896616806108545 0.0
3.3323201371761884 1.3903978946273163 0.0
3.2078050180349220 1.6707775518501091 0.0
3.1600453267611730 2.3405100653099606 0.0
3.2702772965356743 2.5131974351661004 0.0
3.0128277000929962 -0.5068186827985613 0.0
3.6099432850332489 3.8487446347922130 0.0
2.5049754837432956 2.1144395285019426 0.0
2.9079432364208126 1.4132248553750224 0.0
3.9414145868979862 0.5340273463941143 0.0
2.2937360050726205 0.3618143161063361 0.0
3.7097687888369770 1.2387705598062830 0.0
2.7984310494489426 2.6295012479806372 0.0
3.4916533292421379 4.5880332711189267 0.0
3.6329790054627291 2.6432760950303322 0.0
2.2434825894401560 1.3187387380888802 0.0
4.3411319344063735 2.3646980968870439 0.0
4.0276405310660772 2.5803334896378010 0.0
2.8482803830126553 -0.7948661464496140 0.0
4.1177383094534994 1.8372681762031471 0.0
2.5147566999984980 2.0308480269743576 0.0
2.5327988234248782 1.0735097636103854 0.0
3.9380041920284201 2.7321581341873151 0.0
2.7157998995657602 1.3469889972288434 0.0
3.8244985082486411 -0.4471908984711915 0.0
1.9678145027177842 1.4303838780432574 0.0
2.2013758698874222 0.6098098558867184 0.0
2.0677635426905905 0.0342717839288394 0.0
4.1817252986544373 2.4840940771915725 0.0
2.6156820203578217 1.7220781939521546 0.0
2.8027976536511972 2.4563029137147749 0.0
2.9347183013669471 4.7381465245136871 0.0
2.3493243664220795 1.2541075595144526 0.0
2.5249398198391009 2.8795114494179357 0.0
2.1731386709391707 1.6408727399172607 0.0
3.2866231567006126 3.5017754710459159 0.0
1.8114100528277379 1.7688502999125901 0.0
4.0027718250445448 -0.1117318770357304 0.0
3.5041408423433507 2.2614391570027181 0.0
3.8953044945339639 2.5709718715011527 0.0
3.9931032862060820 2.0215776326263670 0.0
4.0599364212867579 2.1326721196555116 0.0
3.6155721562110741 0.4466114575560691 0.0
3.1389234248242848 1.6053637859686725 0.0
1.6449597073241597 1.6764461342437518 0.0
2.2383634438593729 1.0691769235310700 0.0
2.8644290137638908 -1.0494645263634867 0.0
3.7342442514225920 2.5620904634829289 0.0
3.8819336539423532 2.0005977665779495 0.0
1.3938878545385243 0.0700096525808200 0.0
2.0107993434287672 1.0975684891334316 0.0
3.7359559309972501 3.1671294393901430 0.0
1.1001687470605883 0.4417049304614189 0.0
1.8313765542974469 3.2599909726194047 0.0
1.4689317349358784 0.8489930236062770 0.0
4.0018222036219084 1.5981946995504259 0.0
1.8405802272717189 2.2640187784933232 0.0
1.0917806337716358 0.7250321589456937 0.0
2.1239418364659008 2.3894329036194879 0.0
2.7846097121734914 3.3820380127822371 0.0
3.3058761981330069 1.1034216013092679 0.0
3.8573974649055498 0.6473711106033878 0.0
3.5790218004069589 2.2223747583542481 0.0
3.7616052193238838 -1.1333867102394186 0.0
3.2817659928946736 1.7711562132681065 0.0
4.0190163050491599 1.8197849701328332 0.0
1.6351835305396818 -0.3354155307448781 0.0
1.4063433971611163 1.5075495174815730 0.0
3.4479077853026499 2.5908268194385622 0.0
1.2840313622152615 1.8026868989885994 0.0
3.6047493623172766 2.7490154957767285 0.0
3.9474565469108382 1.0935999609765761 0.0
1.4587730613610197 0.7736530182476515 0.0
1.3688101508281483 1.3050410746361119 0.0
3.9178773000206215 -0.9442369198822085 0.0
1.8248712041966644 1.8424673098310964 0.0
1.5113249976397611 0.8512822142116816 0.0
1.2285131272962970 0.1571290935780842 0.0
3.7169926795976540 2.3529597238640494 0.0
4.0540385002647898 0.1376774216499613 0.0
3.1260737689819718 -0.3250385124357787 0.0
1.5934210652174714 3.1018863867847055 0.0
1.1857492810450858 1.0041402434746014 0.0
4.1068867435597864 2.1643825513888695 0.0
1.3170992781742987 0.7947161007870206 0.0
1.5297389310978429 2.7802206481691716 0.0
3.6810840502676920 2.1016907678061392 0.0
1.3192962956645011 -0.2710568539285972 0.0
3.2959435822252514 0.8007743029085842 0.0
3.1583045816986322 2.4936178819563359 0.0
2.6857197682681480 -1.4079063555131019 0.0
4.1042662451897911 2.6150474942852555 0.0
3.4418730208206894 1.9817179447846816 0.0
3.8149002135282006 0.2048664061322969 0.0
2.0000839928933667 3.0560407528645173 0.0
3.6271631751111020 3.6727506596687207 0.0
2.4430266254115227 4.0338092287378062 0.0
0.8446423648923355 0.7999441682911712 0.0
3.7687817659403962 2.5465641282408344 0.0
1.0579438280395943 0.5593184565248959 0.0
2.8215780593201676 0.2424175122982884 0.0
2.1221324856498893 2.2106150812462304 0.0
3.5976527688046382 2.8410935158273598 0.0
3.1487330332174053 1.0501189031256923 0.0
0.8256258260793303 0.5924767462184680 0.0
4.1571169806758084 2.0712525072026460 0.0
4.1376116721246499 -0.4773463463082501 0.0
3.5462890777765947 1.6539627223679962 0.0
2.3021076903216833 1.5869660105968757 0.0
0.7641786049255921 3.4574472034907195 0.0
0.9859310980264481 0.8468173250888178 0.0
4.2486270613115487 2.0553541084074847 0.0
1.3045462467540994 1.0399563651195494 0.0
1.2232508496646826 0.4767433610141238 0.0
3.1165160180821592 1.8440329052170705 0.0
1.4049171169091652 -0.2956391697810683 0.0
4.2696610847743655 2.4573489047131685 0.0
3.7571702095722781 1.7011078287962003 0.0
3.1717570546366067 2.2117752522119134 0.0
2.8934957338784799 2.9982784669173848 0.0
3.9323486060269102 3.2622405728079586 0.0
0.9382471158730517 0.2974810155211328 0.0
1.7262048090331010 2.4100927389538027 0.0
4.0751636058607072 2.5454788028258655 0.0
3.6904940548606864 -1.4066377242945993 0.0
1.2131529063506481 3.3076045988791307 0.0
1.1532543723847111 0.4744288226479485 0.0
0.9422610501613827 0.3757550782207233 0.0
0.8786800030382146 0.0527347315214701 0.0
4.1240767981960227 2.4668445269144366 0.0
3.8385759351406405 2.8497061335679539 0.0
2.7429113661113607 1.6109056393680714 0.0
1.0306255990235040 1.4839075407637707 0.0
3.9677061988162281 2.6527510518658719 0.0
4.1668682409196425 2.3732935821782064 0.0
4.3043595848182843 2.2364773724426952 0.0
4.0942597990406888 1.9698120452297390 0.0
1.6335544079689355 2.3202445378344057 0.0
3.7999280461651570 -0.1870590324629563 0.0
1.2156825821970727 0.6139024107347256 0.0
3.8442312280769499 1.5597944773694905 0.0
3.9350091020487685 1.4406812191903198 0.0
2.5570454044175350 1.7497367465122569 0.0
3.0712461301006986 1.5237418048966858 0.0
3.0715951597394699 2.0766855879282571 0.0
3.0711254434709092 1.9395017646523414 0.0
3.3503112964276189 1.7846309145684367 0.0
3.9958558967262316 2.2716507920767928 0.0
1.0306031658448949 0.1404204431903065 0.0
2.8678303447913467 2.1275627144360589 0.0
2.3805908349874514 0.8510279750511390 0.0
2.7315573040477101 1.9797177852689585 0.0
2.3905420700335087 -0.0524978650331373 0.0
4.1588018231041657 -0.7832936023142643 0.0
0.9397544513474474 0.9564372701340014 0.0
2.3130233542201903 -1.0760427843365430 0.0
4.0907637162132007 2.5932355669340383 0.0
2.8441721755492080 1.4341725055099086 0.0
3.1389132780136673 1.8794147966023926 0.0
3.4917952412856450 3.9779273826609227 0.0
0.5213143930410430 1.6424472556987209 0.0
3.7531021037385526 2.7551987263328113 0.0
1.5512541761451468 1.8409444236701347 0.0
2.9076121885331658 -0.7060445241945715 0.0
3.7693766237490678 0.8295726624306848 0.0
3.6325398099454973 2.4726072342747818 0.0
0.6287836828988979 0.4961389281174425 0.0
1.2013250596416631 2.2394406221861689 0.0
3.1057632018309991 2.7504984434083699 0.0
1.7179561099510245 2.9227252516410491 0.0
1.0194194458691017 1.8921255489159248 0.0
0.8129939490886438 1.5837316038171501 0.0
1.6637005266746543 3.0813960541872110 0.0
1.4436142983078954 1.1847084500505558 0.0
2.1903504836078871 -1.4148445816873139 0.0
2.1112298360116335 1.5652905426980042 0.0
0.6586793705075021 0.2918234217705484 0.0
0.7640605455659712 0.5774686775931361 0.0
3.9216237412140642 3.4614897345433202 0.0
1.2595711324170580 -0.0788737127269512 0.0
3.4258217126682076 0.8323514372769210 0.0
4.1296230540249574 -0.1962933899528778 0.0
3.9113057022451274 2.4063063436619707 0.0
1.1250736262571428 3.3292141709057712 0.0
2.4709666956944725 0.6902262130712457 0.0
0.5885623501329309 0.3538408843402297 0.0
3.4519022275819884 -0.5014848939763887 0.0
3.6908664633240460 2.6428567546389785 0.0
0.7351503003213660 -0.0170675598632140 0.0
2.5656705406616993 -0.2791312706125423 0.0
2.6345157869807658 1.4175060364154173 0.0
3.6933814060514960 -1.7369411288248853 0.0
0.7811044176744065 0.1048912024693219 0.0
2.4062904010051418 1.5272682499179620 0.0
2.8550792540250636 2.4221575811741558 0.0
2.2149065684380917 1.9615356927946244 0.0
3.9231870923998655 2.5261318040422656 0.0
3.7749327751399648 1.9548718039000514 0.0
2.4808397409587761 1.1072054282032580 0.0
3.7093795472489530 3.7863935514202498 0.0
4.1914475837986780 2.1506738951612800 0.0
0.9323831702563264 0.5975070277165474 0.0
3.1439340010763930 3.2360134024334899 0.0
2.7160068511086215 1.6806051622056473 0.0
4.2226158503478119 2.2301531990422618 0.0
4.1383519137767477 2.0572257360886868 0.0
3.1112985539104470 2.1905280338823729 0.0
3.7452979595980733 2.5827498782068212 0.0
1.2603409143646922 -0.7699698090175210 0.0
3.2566263528644681 0.6424089175161607 0.0
4.0174876747244834 0.1230282923921766 0.0
1.6698186990964496 4.0683865007076703 0.0
2.2537898088374058 1.8643141546308410 0.0
0.7053855068696102 0.6015181372156031 0.0
4.0144143546337538 2.5972900305352407 0.0
4.2941996156633060 2.1853860024458869 0.0
3.9019338861869803 1.1998510761685699 0.0
3.8205871069609585 2.1984617954643060 0.0
3.8236669969401622 2.9152728714764748 0.0
3.4133688922455341 0.0644706472493656 0.0
3.9096036682932884 3.4745489756095442 0.0
3.8021499956661984 2.4537031297750844 0.0
3.7555764647338656 1.9886531263559792 0.0
3.5938147194328960 1.7562593841605976 0.0
2.8217013536792077 1.7798816457065587 0.0
3.3411946678547459 1.3977352098960327 0.0
3.1936433949040399 1.6655666707606946 0.0
3.1557917443845085 2.3310313344664659 0.0
3.2794065398012511 2.5108742673630471 0.0
3.0128111344350033 -0.5068740210248039 0.0
3.6098565111524805 3.8489358932203452 0.0
2.5167154872256052 2.1175720491121859 0.0
2.8956389052530604 1.4110053173396753 0.0
3.9394243751639126 0.5373373412626138 0.0
2.2967670970336225 0.3644608946568686 0.0
3.7039077191687251 1.2418947654383548 0.0
2.7982662954306394 2.6269634377071984 0.0
3.4916019709550552 4.5880877403518747 0.0
3.6351049263874482 2.6421316582457521 0.0
2.2305035907296960 1.3111262773373822 0.0
4.3408149295284177 2.3665091091855754 0.0
4.0267495556609765 2.5763038429417939 0.0
2.8482536888911811 -0.7949244723806455 0.0
4.1165873547432774 1.8449176187168095 0.0
2.5124154676353774 2.0258399424048528 0.0
2.5447662888874030 1.0796907765386061 0.0
3.9424330719343761 2.7252533235794973 0.0
2.7301888834766763 1.3544481817820688 0.0
3.8245824530195613 -0.4468574312121085 0.0
1.9594777989295342 1.4227052662047539 0.0
2.2079428542652630 0.6129001119376158 0.0
2.0679267536964057 0.0348137067537465 0.0
4.1877607031460267 2.4879140194415479 0.0
2.6066177504149590 1.7218756804603312 0.0
2.8079824181412660 2.4556371112348443 0.0
2.9347133304984117 4.7381529412226948 0.0
2.3363374590806796 1.2474063057662341 0.0
2.5251852693094556 2.8796452999901838 0.0
2.1851714119414511 1.6486203057894113 0.0
3.2865351251535260 3.5015242824369035 0.0
1.8204284147372194 1.7698542105369071 0.0
4.0020869579867959 -0.1105249737133993 0.0
3.4976412944806987 2.2512583592850621 0.0
3.9055129127008188 2.5713787160803472 0.0
4.0016868810408601 2.0284350226653185 0.0
4.0501690149793683 2.1355967418837061 0.0
3.6153642555133976 0.4501195422309466 0.0
3.1332633704743627 1.6069939601304812 0.0
1.6450797106702970 1.6761090707815014 0.0
2.2261301306972991 1.0648487293308793 0.0
2.8644202727533083 -1.0494984127058216 0.0
3.7438309140625137 2.5604256134813936 0.0
3.8695941925119111 1.9981446343041454 0.0
1.3952149289374338 0.0713589644726765 0.0
2.0222641796624359 1.1037954470146190 0.0
3.7372468883883330 3.1644790589468763 0.0
1.1065063766869916 0.4445964443728549 0.0
1.8313760171887894 3.2599920602402350 0.0
1.4597742214340010 0.8429304567776801 0.0
3.9967669131249992 1.6041552985026215 0.0
1.8406106488354399 2.2641825105929989 0.0
1.0882168558565211 0.7214955195900910 0.0
2.1245881783052591 2.3889759492405052 0.0
2.7844018054709441 3.3820574604498734 0.0
3.3110789810663848 1.1097511884950042 0.0
3.8546248732899553 0.6494228931803467 0.0
3.5698259806586368 2.2140177582475897 0.0
3.7616620688247462 -1.1335038836173263 0.0
3.2678412909550905 1.7646091458170321 0.0
4.0237871790460131 1.8272998579640714 0.0
1.6350563914760856 -0.3354814290528356 0.0
1.4140817520141071 1.5104399710674601 0.0
3.4473198725257910 2.5842212896526884 0.0
1.2887412567559098 1.8027782431913444 0.0
3.6103393326033903 2.7454938047849016 0.0
3.9441456934130987 1.0986738373976990 0.0
1.4490157286521521 0.7689531374915326 0.0
1.3676704760114962 1.3027757175186931 0.0
3.9180138059773060 -0.9443210984618492 0.0
1.8249838087983608 1.8426875108509841 0.0
1.5045362644424014 0.8501797229834783 0.0
1.2315837208833089 0.1588796687640742 0.0
3.7104412645671494 2.3447547136237508 0.0
4.0528064330711642 0.1387406166517556 0.0
3.1262023079482590 -0.3242004178858842 0.0
1.5934213414961149 3.1018860877700898 0.0
1.1781522419901278 0.9971685382207290 0.0
4.0976161853342923 2.1629051979488416 0.0
1.3268342898767087 0.8003021270305304 0.0
1.5294841916050728 2.7801490312287367 0.0
3.6943886697067025 2.1092677361629999 0.0
1.3191547831470609 -0.2709906726018481 0.0
3.2982425614750301 0.8059746701403112 0.0
3.1583026634395397 2.4888130298027953 0.0
2.6857198948004024 -1.4079060157625625 0.0
4.1101682960038222 2.6171325464532096 0.0
3.4300963547574441 1.9823257955639950 0.0
3.8141835035354461 0.2071098713412802 0.0
2.0000743971272832 3.0560651297365649 0.0
3.6272610106598697 3.6725446091940652 0.0
2.4430008530482548 4.0338197511552778 0.0
0.8508660707351172 0.8047393024696574 0.0
3.7680428729492088 2.5375406150243327 0.0
1.0496952737653136 0.5550760116649894 0.0
2.8229316865667959 0.2449694231755727 0.0
2.1247833149449074 2.2102668349133014 0.0
3.6014258299782624 2.8385099802934342 0.0
3.1450496829506900 1.0516512819973975 0.0
0.8213472559010556 0.5886473848606202 0.0
4.1649629808025894 2.0775739762865859 0.0
4.1375159251557401 -0.4770504248584398 0.0
3.5566760428286814 1.6616796358444887 0.0
2.2974843024848628 1.5872689536519420 0.0
0.7641786049255921 3.4574472034907204 0.0
0.9837024959457639 0.8438647653416944 0.0
4.2455799783568757 2.0611839944016337 0.0
1.3044230601184852 1.0392534256407870 0.0
1.2328425115577351 0.4810293209041672 0.0
3.1027265584730137 1.8360040335040924 0.0
1.4048766007263003 -0.2956500397128882 0.0
4.2684961366650489 2.4577134367177074 0.0
3.7489378563161884 1.7044965448750706 0.0
3.1851241391927099 2.2170919701073197 0.0
2.8935139123497229 2.9966344832459173 0.0
3.9336289704547283 3.2611041830638468 0.0
0.9429776569909861 0.2993816605074350 0.0
1.7262039909623559 2.4101635468480787 0.0
4.0779027876992116 2.5414950835117187 0.0
3.6905056489434713 -1.4066981508975771 0.0
1.2131529711118503 3.3076046036181928 0.0
1.1608316599081745 0.4779479352756713 0.0
0.9342075726647057 0.3721739693452110 0.0
0.8806872922757900 0.0535312740253097 0.0
4.1222132867555237 2.4637189592421520 0.0
3.8421815176910163 2.8431582231315264 0.0
2.7301198751196214 1.6021304969387573 0.0
1.0308066273959109 1.4839422812689511 0.0
3.9735662444668418 2.6467046297486352 0.0
4.1743132531184051 2.3787270689243183 0.0
4.3051721584717342 2.2400500554248319 0.0
4.0869884295852970 1.9755763056256510 0.0
1.6335521647137830 2.3202474407617051 0.0
3.7998193125864597 -0.1857470167452651 0.0
1.2088097673176867 0.6113487621750295 0.0
3.8481940196555136 1.5674215823800211 0.0
3.9352218187288845 1.4486655124631687 0.0
2.5534195913860351 1.7437306006463604 0.0
3.0576754595576743 1.5210453461230546 0.0
3.0648197611971137 2.0670424567324264 0.0
3.0857930352215859 1.9478195418728261 0.0
3.3632510089463734 1.7922364561102939 0.0
3.9856164402091463 2.2685098914939910 0.0
1.0310680158237404 0.1407986807952226 0.0
2.8793200673491328 2.1273588483861992 0.0
2.3890584587004295 0.8563658857157014 0.0
2.7220275065041393 1.9702595918147436 0.0
2.3913065729205272 -0.0509826174658518 0.0
4.1589223683103551 -0.7833058724321945 0.0
0.9399091404978480 0.9566261816803014 0.0
2.3130243364036525 -1.0760415809251813 0.0