# vtk DataFile Version 3.0
LucasCarvalhoTCC Results
ASCII

DATASET POLYDATA
FIELD FieldData 1
TIME 1 1 double
6.0

POINTS 531 float
0.02430399999999999 0.16425 0.0
0.5913384 0.481878 0.0
1.30475 0.591832 0.0
0.774126 0.951272 0.0
0.04779564148251592 0.1966194329439859 0.0
0.0726092153537953 0.2279866320496896 0.0
0.09876577335895967 0.2582426022760065 0.0
0.1262817198684718 0.2872673048853742 0.0
0.1551671626852806 0.3149288071400502 0.0
0.1854238368919928 0.3410826624766006 0.0
0.2170424591499632 0.3655716640299072 0.0
0.2499995164635996 0.3882263409476824 0.0
0.2842534387828506 0.4088665906889567 0.0
0.3197403359862048 0.4273050841371062 0.0
0.3563695945475563 0.4433531534921038 0.0
0.3940201673622058 0.4568300511916809 0.0
0.4325386107291805 0.4675762214989666 0.0
0.4717406913237268 0.4754709112408955 0.0
0.5114182513144845 0.480453442081874 0.0
0.5513531678859215 0.4825464217651069 0.0
0.6182637923774223 0.5096055604109244 0.0
0.647389101376845 0.5350126187545199 0.0
0.6784752958296183 0.5579802184492302 0.0
0.7112421079139344 0.5784810076698811 0.0
0.7454110434104482 0.5965507527581431 0.0
0.7807301979183381 0.6122562812860965 0.0
0.8169827939052532 0.6256694297140926 0.0
0.853985522124928 0.6368498290413532 0.0
0.8915818964261243 0.6458353363890481 0.0
0.9296339776508085 0.6526379336565091 0.0
0.9680139759519513 0.6572432424840469 0.0
1.006596418266983 0.659612648128084 0.0
1.045251165872634 0.6596877658251245 0.0
1.083837680945672 0.657397570658483 0.0
1.122201320191055 0.6526688455666412 0.0
1.160173053543044 0.6454405726452737 0.0
1.197574286953346 0.6356824063786186 0.0
1.23422961949795 0.6234159704281613 0.0
1.26998758503999 0.6087366500005643 0.0
1.285086682927543 0.6256533177085738 0.0
1.263669745906668 0.6583917156018083 0.0
1.240480125919214 0.6898988493917133 0.0
1.215532715641304 0.7200329197235763 0.0
1.188869833862339 0.7486599839005789 0.0
1.160556835593143 0.7756559317113654 0.0
1.130680194163798 0.8009104211039757 0.0
1.099347083827048 0.8243335727704395 0.0
1.066684425336412 0.8458643604021228 0.0
1.03283497048792 0.8654772531176074 0.0
0.9979492572630678 0.8831824104874066 0.0
0.9621749986495024 0.8990166556695112 0.0
0.9256475378616493 0.9130272060048579 0.0
0.8884846540507749 0.9252538945090274 0.0
0.8507866567183312 0.935715378288671 0.0
0.8126405010322847 0.9444016349017643 0.0
0.7365055179612304 0.9396161853607135 0.0
0.699310855231089 0.9266666891603924 0.0
0.6626179171945521 0.9123577070090924 0.0
0.6264901449910028 0.8966765244755546 0.0
0.5909789825447118 0.8796450886595113 0.0
0.556124897941028 0.8613059841617771 0.0
0.5219601957009091 0.8417124664434518 0.0
0.4885110616878257 0.8209207172498462 0.0
0.4558007060429968 0.7989848675704875 0.0
0.4238520247653796 0.775953675763176 0.0
0.3926900138417566 0.7518687036338616 0.0
0.3623437622133722 0.7267636709390595 0.0
0.3328479550295906 0.7006647540504483 0.0
0.3042438201183181 0.6735915983461908 0.0
0.2765795358619001 0.6455588748284606 0.0
0.2499101143933102 0.6165781952942546 0.0
0.2242967982692083 0.5866601984136335 0.0
0.1998060807431611 0.5558166834807132 0.0
0.1765083808984156 0.5240625786010467 0.0
0.154476512720734 0.491417660368959 0.0
0.133784033184808 0.457907916333494 0.0
0.114503564227142 0.4235664945146766 0.0
0.09670517293008124 0.3884342245925089 0.0
0.0804548910754031 0.3525597611689231 0.0
0.06581337946329963 0.3159993090744527 0.0
0.05283482490365372 0.2788161107032479 0.0
0.0415660226296666 0.2410796291505872 0.0
0.03204569406625649 0.2028646095712164 0.0
0.5272009874003867 0.6419624505772817 0.0
0.7421848286576707 0.7716726266421574 0.0
0.8789503364783713 0.7829234141383637 0.0
0.6149390992905563 0.7449438030688011 0.0
0.4064556042659638 0.5942834991165423 0.0
0.9875021850865396 0.7666507358101158 0.0
0.3188065960661005 0.539594034984892 0.0
0.61365100263957 0.6399487878797632 0.0
0.8049090660915541 0.8464379870891131 0.0
0.7099820328572021 0.6828840522539854 0.0
0.5239467234991928 0.7406922291088611 0.0
0.8154056325591208 0.7211774015928547 0.0
0.6676178829014909 0.8152713180209475 0.0
0.4416080359619968 0.674360953773491 0.0
0.489443615375965 0.5654986742123573 0.0
1.076665773779852 0.7387182918829318 0.0
0.250390543112057 0.4877450112830265 0.0
0.5736819937919005 0.5790366884881447 0.0
0.7263706755366466 0.8615301097563091 0.0
0.940143307772686 0.8233944909985552 0.0
0.927065543677544 0.7236459161626674 0.0
0.8744389806957806 0.8609114380468947 0.0
0.336888362650554 0.6081958070931937 0.0
0.2030757334857187 0.4383942902513459 0.0
0.3861483329720647 0.5255533415902591 0.0
0.5621001921466506 0.7923778419149285 0.0
0.6822897332295245 0.7428043323059399 0.0
0.5764061681675353 0.6881266532454204 0.0
1.129195449682892 0.7163224153578123 0.0
0.8157794419559141 0.7831214907157077 0.0
0.3806644703311284 0.6554275822782399 0.0
0.7695737871052837 0.669593045341503 0.0
0.4699375460410929 0.6217118815516158 0.0
0.6830867370872363 0.630350317562806 0.0
1.040416897214502 0.7929392348941093 0.0
0.4604428393605979 0.7321209818568342 0.0
0.8729552856459739 0.7015083313474691 0.0
1.017010765275644 0.7166925631396708 0.0
0.6458785458483771 0.6946878992565794 0.0
0.7733575582969163 0.8941098392103913 0.0
0.4457537579383052 0.5273353624588528 0.0
0.163830623786951 0.3903175742448083 0.0
0.6095823984734953 0.8256600013628639 0.0
0.2618074352614998 0.5435604438425528 0.0
0.6287880420949764 0.5875838132975476 0.0
0.3100402147222924 0.4835410260423071 0.0
0.5422177893302824 0.5343158927797464 0.0
0.9964262112680041 0.8213447667248638 0.0
0.4971609598823845 0.6906859160718212 0.0
0.5740517260168769 0.633982031239429 0.0
0.7423299505107201 0.7218768583704394 0.0
0.767147744476665 0.819658485932403 0.0
0.9427329070375209 0.7774595780066723 0.0
0.8375285793481674 0.8869398470561132 0.0
0.2879426409425497 0.5872676364411625 0.0
0.6797562629663748 0.8647676397847667 0.0
1.171674168522591 0.6949964056806914 0.0
0.5261010885606964 0.6055079299963303 0.0
0.7081534744446967 0.8078672678314597 0.0
0.9681672688626206 0.705385299758921 0.0
0.7364069054947873 0.6432919177737106 0.0
0.363826821075015 0.5678764295233764 0.0
0.826170216989844 0.6605791783255148 0.0
0.1284439337099834 0.3602715082199688 0.0
0.518140828090112 0.783905985497134 0.0
0.8452908336054504 0.8167586152211004 0.0
0.2015204468558833 0.492088055688788 0.0
0.4005883523205732 0.7121294304856254 0.0
0.3551392316798573 0.4864133323669936 0.0
0.2501727034998737 0.4443035857235296 0.0
0.857938396055507 0.7390317828783199 0.0
0.9245301815433076 0.8668102132501951 0.0
0.5702050292970205 0.7323438487067678 0.0
1.111607633075016 0.759318252473435 0.0
0.6317193755596126 0.7853891653733797 0.0
0.7921381265818805 0.7497379312370454 0.0
1.088942426366261 0.7015435214091311 0.0
0.5818207607488639 0.5352340257544296 0.0
0.4203532416309484 0.6369649631143086 0.0
0.4854818714173937 0.5131439318707094 0.0
0.4475429831528036 0.5690430472086269 0.0
0.8968753306595262 0.8225547516037004 0.0
0.6339557898063448 0.8543470494763272 0.0
0.3416564411796998 0.6516449771136894 0.0
1.082970576264455 0.7856036465430698 0.0
0.2255204648032354 0.5229464838393291 0.0
0.7335043541589261 0.9012744999286941 0.0
0.9097052989734319 0.6921177492721042 0.0
0.5363428275528405 0.6992389299864537 0.0
0.9657777897300287 0.8588269742066746 0.0
1.025947476617909 0.7556651119714124 0.0
0.1090829970454354 0.3226173037985549 0.0
0.4836644525169279 0.7663103281018557 0.0
0.6910856326166581 0.777867529208468 0.0
0.6694391877434097 0.5946719355048008 0.0
0.2954883530575775 0.4501042133334518 0.0
0.6746032498128595 0.6643957640016517 0.0
1.054636636429828 0.6974583960183274 0.0
0.8939255235163368 0.7470597914537064 0.0
0.3749741568555516 0.6190655430398917 0.0
1.204101441114554 0.6801433534918062 0.0
0.6130053345415899 0.6785345531932346 0.0
0.7679719108452487 0.8562682874000032 0.0
0.9710820219997449 0.8008372590855476 0.0
0.1608022352294362 0.4242591696906621 0.0
0.2865399820604418 0.5141369963640697 0.0
0.1962258775846918 0.4008383427744516 0.0
0.6210920174972845 0.5516143721732873 0.0
0.4843009180093644 0.6583977883024127 0.0
0.5695029195102991 0.8267073580550881 0.0
0.9562891163300477 0.7436031251145003 0.0
0.4174190173896447 0.5044019081507806 0.0
0.410860431802698 0.5535781448116232 0.0
0.8709320861791604 0.9002602580953145 0.0
0.427354757192076 0.7399041791280969 0.0
0.7107884943357746 0.7172753954970394 0.0
1.030382288537246 0.8267335242583146 0.0
0.7737440530215844 0.7115751739064536 0.0
0.8042035044852396 0.9123190309183211 0.0
0.0480920891272324 0.2181807374272496 0.0
0.3695079235280397 0.6886893012630373 0.0
0.773516204411121 0.7830673827025234 0.0
0.302776671534508 0.6210168062901616 0.0
0.7150573728414059 0.6149413270404035 0.0
0.5863276441271683 0.769748656022605 0.0
1.143752049005473 0.6780480059671409 0.0
0.6477132714923303 0.7318578097016951 0.0
0.8380052680878572 0.8531154611905379 0.0
0.5966224054445893 0.6051703156405629 0.0
0.3207240819522855 0.5772784374275386 0.0
0.3520131451607586 0.5263918604440553 0.0
0.8573528491808811 0.6709738722470224 0.0
0.1797236573643203 0.460867988842514 0.0
0.5540828191547277 0.6661566975721369 0.0
1.158039843450239 0.7357536542887966 0.0
0.08638006908591334 0.286237566592474 0.0
0.790861820497242 0.6466611559014377 0.0
0.5362079962218838 0.8121454698907893 0.0
0.9405172130232713 0.6862060282668497 0.0
0.6039359324506977 0.711463595189489 0.0
0.4440093493753478 0.6096873538428137 0.0
0.5500746279087338 0.7620941994763282 0.0
0.2578504496023611 0.5739900063885278 0.0
0.502526452350101 0.6209820553182169 0.0
0.6799833858912959 0.7033681517905728 0.0
0.7183487148906835 0.7518430858176317 0.0
0.8006701240044786 0.8118713608014352 0.0
0.1304684854221093 0.3934039266496895 0.0
1.00789495394612 0.7937868725857601 0.0
0.696960396255943 0.893370944718147 0.0
0.8258315165019564 0.7538365084989149 0.0
0.8462950259502577 0.775614153529746 0.0
0.4082018839227037 0.6749460331934272 0.0
0.7025889307788081 0.8378536687159448 0.0
0.4666676520109517 0.6984557076050861 0.0
[...]
POINT_DATA 531

VECTORS Velocity float
0.0000000000000000 1.0000000000000000 0.0
0.0000000000000000 1.0000000000000000 0.0
2.6381929083741809 -0.9593283306565492 0.0
1.7860697785663926 1.0220783517895469 0.0
0.0000000000000000 1.0000000000000000 0.0
0.0000000000000000 1.0000000000000000 0.0
0.0000000000000000 1.0000000000000000 0.0
0.0000000000000000 1.0000000000000000 0.0
0.0000000000000000 1.0000000000000000 0.0
0.0000000000000000 1.0000000000000000 0.0
0.0000000000000000 1.0000000000000000 0.0
0.0000000000000000 1.0000000000000000 0.0
0.0000000000000000 1.0000000000000000 0.0
0.0000000000000000 1.0000000000000000 0.0
0.0000000000000000 1.0000000000000000 0.0
0.0000000000000000 1.0000000000000000 0.0
0.0000000000000000 1.0000000000000000 0.0
0.0000000000000000 1.0000000000000000 0.0
0.0000000000000000 1.0000000000000000 0.0
0.0000000000000000 1.0000000000000000 0.0
0.0000000000000000 0.0000000000000000 0.0
0.0000000000000000 0.0000000000000000 0.0
0.0000000000000000 0.0000000000000000 0.0
0.0000000000000000 0.0000000000000000 0.0
0.0000000000000000 0.0000000000000000 0.0
0.0000000000000000 0.0000000000000000 0.0
0.0000000000000000 0.0000000000000000 0.0
0.0000000000000000 0.0000000000000000 0.0
0.0000000000000000 0.0000000000000000 0.0
0.0000000000000000 0.0000000000000000 0.0
0.0000000000000000 0.0000000000000000 0.0
0.0000000000000000 0.0000000000000000 0.0
0.0000000000000000 0.0000000000000000 0.0
0.0000000000000000 0.0000000000000000 0.0
0.0000000000000000 0.0000000000000000 0.0
0.0000000000000000 0.0000000000000000 0.0
0.0000000000000000 0.0000000000000000 0.0
0.0000000000000000 0.0000000000000000 0.0
0.0000000000000000 0.0000000000000000 0.0
2.6783018707158006 -1.7943056919200646 0.0
3.6706865285565513 -2.3036270603543967 0.0
3.7614786139803784 -2.2271316506281615 0.0
3.7624428933298950 -1.9755817616262816 0.0
3.8555957251255997 -1.7633325870206407 0.0
3.9636264520219524 -1.4667885667337583 0.0
4.0285037101276275 -1.3182044603269323 0.0
4.1635954326248470 -1.0976966452198289 0.0
4.1616976644340626 -0.8098352074506713 0.0
4.1520908043366722 -0.5476013230001238 0.0
4.0241895689902760 -0.2532982539776130 0.0
3.8041929377654085 0.0468552890640142 0.0
3.6115249483067537 0.2803969598814697 0.0
3.2426577010845450 0.5331363643445268 0.0
2.6092278681214602 1.0880172722487689 0.0
1.7586440484431676 0.9373271601276264 0.0
0.0000000000000000 0.0000000000000000 0.0
0.0000000000000000 0.0000000000000000 0.0
0.0000000000000000 0.0000000000000000 0.0
0.0000000000000000 0.0000000000000000 0.0
0.0000000000000000 0.0000000000000000 0.0
0.0000000000000000 0.0000000000000000 0.0
0.0000000000000000 0.0000000000000000 0.0
0.0000000000000000 0.0000000000000000 0.0
0.0000000000000000 0.0000000000000000 0.0
0.0000000000000000 0.0000000000000000 0.0
0.0000000000000000 0.0000000000000000 0.0
0.0000000000000000 0.0000000000000000 0.0
0.0000000000000000 0.0000000000000000 0.0
0.0000000000000000 0.0000000000000000 0.0
0.0000000000000000 0.0000000000000000 0.0
0.0000000000000000 0.0000000000000000 0.0
0.0000000000000000 0.0000000000000000 0.0
0.0000000000000000 0.0000000000000000 0.0
0.0000000000000000 0.0000000000000000 0.0
0.0000000000000000 0.0000000000000000 0.0
0.0000000000000000 0.0000000000000000 0.0
0.0000000000000000 0.0000000000000000 0.0
0.0000000000000000 0.0000000000000000 0.0
0.0000000000000000 0.0000000000000000 0.0
0.0000000000000000 0.0000000000000000 0.0
0.0000000000000000 0.0000000000000000 0.0
0.0000000000000000 0.0000000000000000 0.0
0.0000000000000000 0.0000000000000000 0.0
4.0005408726136720 2.6033321240777094 0.0
4.2962219431089368 2.1629419379897259 0.0
3.9086066822623278 1.1864587904375770 0.0
3.8337171003811981 2.2059925914753231 0.0
3.8201105788621277 2.9204081515186147 0.0
3.4279674985952275 0.0724811260117900 0.0
3.9086467915336054 3.4765353956188330 0.0
3.7806281286237988 2.4462249318079814 0.0
3.7569341593749570 1.9662375836198407 0.0
3.5772985486664934 1.7406980178407696 0.0
2.8386083004734060 1.7973143550760056 0.0
3.3459692817209143 1.3820344047131181 0.0
3.2161899722717786 1.6702580533950833 0.0
3.1608996206298317 2.3444051460356374 0.0
3.2684462303882271 2.5118664492444669 0.0
3.0196762497033900 -0.5010247163138922 0.0
3.6099303735027806 3.8487554160603317 0.0
2.5027677889629536 2.1148061480234226 0.0
2.9114383574750295 1.4087054248554298 0.0
3.9312333411259988 0.5389159110633706 0.0
2.3189346166123368 0.3652596701752912 0.0
3.6915738174602790 1.2332357863124292 0.0
2.7987350135380780 2.6307405597360840 0.0
3.4916726433848710 4.5880166845991566 0.0
3.6320217838472519 2.6434034563395850 0.0
2.2534378676861087 1.3248975526822153 0.0
4.3389201825581987 2.3554864841611658 0.0
4.0222427385089352 2.5824770771441421 0.0
2.8509967988968699 -0.7936891822312084 0.0
4.1192656578070821 1.8196730986191798 0.0
2.5157847768244346 2.0329660470371267 0.0
2.5369233435826861 1.0696928248280748 0.0
3.9335512972477686 2.7325474236797764 0.0
2.7103488676753540 1.3449363088962858 0.0
3.8241914664319530 -0.4330080444039639 0.0
1.9724026126211498 1.4351713742624204 0.0
2.2226849625990734 0.6122477053893309 0.0
2.0827683491077416 0.0390874962291964 0.0
4.1746457142907802 2.4796765548881616 0.0
2.6129584526297354 1.7155443915655395 0.0
2.8017453268199652 2.4557565225057747 0.0
2.9347210764466261 4.7381441522296122 0.0
2.3589759248844211 1.2591065479429373 0.0
2.5248696136998894 2.8796259271959914 0.0
2.1701210092413685 1.6406729397631723 0.0
3.2864711876062289 3.5018903839984126 0.0
1.8118150470581855 1.7688257904282785 0.0
3.9911496443825505 -0.0966588747525537 0.0
3.5044851402712474 2.2676131403239501 0.0
3.8856098790357194 2.5711593263964065 0.0
3.9935292941866245 2.0071572084951037 0.0
4.0561935241709675 2.1146102342532687 0.0
3.6267367143834224 0.4529473138573006 0.0
3.1216212677647062 1.5978258432113543 0.0
1.6450539950370540 1.6767787551788396 0.0
2.2463127765815374 1.0702341928450010 0.0
2.8651857710869195 -1.0484165311771603 0.0
3.7282928052102728 2.5616691117388308 0.0
3.8854891091159969 1.9924744554253111 0.0
1.4109536142102634 0.0733493788469433 0.0
2.0095608741193485 1.0932341310637339 0.0
3.7354460942842449 3.1679758991545213 0.0
1.1075014566845922 0.4424248555354242 0.0
1.8313767224040143 3.2599904546530314 0.0
1.4749746229794121 0.8535727005252284 0.0
3.9948662692883472 1.5847365339493806 0.0
1.8405697136377850 2.2639774676183930 0.0
1.0934367862275269 0.7267595173295883 0.0
2.1234549865687811 2.3895772068036880 0.0
2.7846551644203257 3.3820458416495707 0.0
3.3250218855833822 1.0990461750018090 0.0
3.8311186529105727 0.6526679092827665 0.0
3.5818340608704222 2.2281857047821152 0.0
3.7619348376807284 -1.1283199453818193 0.0
3.2907249356528014 1.7741313752707224 0.0
4.0246739028683232 1.8037207647034641 0.0
1.6394404025455316 -0.3340893368378548 0.0
1.4064465480047512 1.5078458986397671 0.0
3.4474317478739547 2.5929066817857893 0.0
1.2838253740095482 1.8022868085227224 0.0
3.6030240412869827 2.7482565732799062 0.0
3.9367526133428732 1.0889297252411050 0.0
1.4653344538269699 0.7766398270422895 0.0
1.3694008070164168 1.3061015267208482 0.0
3.9161855829507073 -0.9323896262126626 0.0
1.8248330148122338 1.8424460093790869 0.0
1.5126530490053662 0.8489024089957888 0.0
1.2449766369115878 0.1577298484450423 0.0
3.7164700870316527 2.3584366682343321 0.0
4.0253706068719755 0.1502487386763163 0.0
3.1388172721225964 -0.3137525432675486 0.0
1.5934209326934168 3.1018865347950517 0.0
1.1900113934982879 1.0086868850740998 0.0
4.1097788650836833 2.1560975166417204 0.0
1.3144058002577641 0.7937909980576470 0.0
1.5297531320065583 2.7802421754339370 0.0
3.6736956174016244 2.0966884854246799 0.0
1.3257968643494522 -0.2690234292951322 0.0
3.3175760422299261 0.8005149357681529 0.0
3.1584707057720602 2.4954456695781175 0.0
2.6858076093627163 -1.4077447154829521 0.0
4.0956884910985583 2.6126712868907478 0.0
3.4392384986491074 1.9688215412422756 0.0
3.8160932875552076 0.2147607653946272 0.0
2.0000881390803440 3.0560300415966029 0.0
3.6270096420980535 3.6729922945979427 0.0
2.4430386859148960 4.0338046846736839 0.0
0.8440151023183876 0.8001391177280212 0.0
3.7657026843939807 2.5498537723942158 0.0
1.0637154242525773 0.5623197984029713 0.0
2.8446473430749508 0.2488489549804569 0.0
2.1212505492247677 2.2103621086028284 0.0
3.5964226168405284 2.8410605047385085 0.0
3.1267904612120980 1.0500387769385848 0.0
0.8277235928721439 0.5945664316452491 0.0
4.1545727691635079 2.0602007481653404 0.0
4.1214914824596258 -0.4605357600504264 0.0
3.5521102591717244 1.6428560328996256 0.0
2.2934007152556433 1.5840790989754867 0.0
0.7641786053109495 3.4574472034235928 0.0
0.9869684916291758 0.8481426493300225 0.0
4.2474636675550554 2.0357405093875647 0.0
1.3047506204437485 1.0403951944274614 0.0
1.2206998762074939 0.4752171426517468 0.0
3.1255606374871876 1.8496010546975081 0.0
1.4063254586288929 -0.2953361899518437 0.0
4.2665823232717948 2.4531370813397633 0.0
3.7437572421437242 1.6897545181670546 0.0
3.1655485135286208 2.2119000386064882 0.0
2.8936369202350094 2.9991919654289068 0.0
3.9315582057905170 3.2626456769813150 0.0
0.9480057131662835 0.2988026266023110 0.0
1.7262040011207878 2.4100674775500139 0.0
4.0672084716604955 2.5478872919074220 0.0
3.6905196847547428 -1.4036893063853981 0.0
1.2131528668091545 3.3076046040898048 0.0
1.1569996421971063 0.4745283227470301 0.0
0.9475077147189308 0.3779758922689364 0.0
0.8912251194741735 0.0535881486240025 0.0
4.1201707899506861 2.4671579266345600 0.0
3.8362532488789021 2.8501693830350656 0.0
2.7512156316791341 1.6179509867757023 0.0
1.0306183775387772 1.4840456638846675 0.0
3.9618087155163728 2.6534227444248364 0.0
4.1611952682630324 2.3653180233613611 0.0
4.3033094082223462 2.2219456368366166 0.0
4.0895966725566026 1.9497266897279482 0.0
1.6335559252020704 2.3202429000823312 0.0
3.8015268134987590 -0.1715941589670226 0.0
1.2186536979323477 0.6142277653973621 0.0
3.8540439495982048 1.5479002837201332 0.0
3.9417667548290973 1.4288431959641601 0.0
2.5583793497948975 1.7526650061279427 0.0
3.0769313956311239 1.5190688586738970 0.0
3.0732039891909766 2.0818797400452040 0.0
3.0645691467360221 1.9374074310595684 0.0
3.3506122235534366 1.7743598164204284 0.0
3.9999003619845137 2.2682670924860573 0.0
1.0417704721461631 0.1432868066547379 0.0
2.8658780394567773 2.1273112195268187 0.0
2.3988566066240811 0.8505691530642504 0.0
2.7359232966466811 1.9859703279298047 0.0
2.4106380139542782 -0.0457181921014251 0.0
4.1481022105452112 -0.7670572127139045 0.0
0.9397298205729309 0.9564464818345882 0.0
2.3130095000010180 -1.0760644457783197 0.0
4.0805513909535307 2.5929329755877859 0.0
2.8399360843047492 1.4303852467154419 0.0
3.1298053053708368 1.8669972399327710 0.0
3.4918105594677669 3.9778998426820324 0.0
0.5217786899932135 1.6424282516543560 0.0
3.7502634826257646 2.7542571227956789 0.0
1.5505174693312496 1.8409120236248286 0.0
2.9115621138988290 -0.7019667751412133 0.0
3.7769255270009667 0.8303333321080502 0.0
3.6260437535759191 2.4722937930686513 0.0
0.6308440997228207 0.4984247118557820 0.0
1.2012918542411932 2.2395078356225770 0.0
3.1056574228628633 2.7509489319539711 0.0
1.7179833415265353 2.9227301533394185 0.0
1.0188384084522759 1.8918279226836956 0.0
0.8133634823871000 1.5836111881260408 0.0
1.6637060298293784 3.0813958124352903 0.0
1.4420087672442616 1.1807413909471725 0.0
2.1903387254894708 -1.4148597346128320 0.0
2.1140066055390498 1.5694848307068583 0.0
0.6620812471804381 0.2924338811543917 0.0
0.7631296216274448 0.5772635069605966 0.0
3.9211085420237715 3.4618323151804824 0.0
1.2615323577267983 -0.0783826889683201 0.0
3.3988785802179993 0.8350835186090095 0.0
4.1034666457300197 -0.1792859187120819 0.0
3.9020208619828756 2.4029848963686380 0.0
1.1250736374015073 3.3292141671688227 0.0
2.4963488933554512 0.6914175744537737 0.0
0.5920430054959163 0.3560923013248800 0.0
3.4588218878474053 -0.4893364330801581 0.0
3.6889562589108844 2.6456303043360268 0.0
0.7424393813035086 -0.0159754068070516 0.0
2.5773319505582912 -0.2718772390711758 0.0
2.6450523674523900 1.4216576401560836 0.0
3.6935013115055746 -1.7358315719623727 0.0
0.7910303430700543 0.1053811103066250 0.0
2.4172546833383053 1.5326328078788718 0.0
2.8543066496165492 2.4209329946691662 0.0
2.2149606995760007 1.9608751824096877 0.0
3.9185298134668103 2.5298122395620330 0.0
3.7760123793190603 1.9434428745737604 0.0
2.4910216321823575 1.1040872164521978 0.0
3.7093533027257677 3.7864281361390226 0.0
4.1903637611263562 2.1342241615016344 0.0
0.9334565568678039 0.5966009813040071 0.0
3.1439064006646191 3.2360640973133128 0.0
2.7159351277569952 1.6730932259333482 0.0
4.2230866077575779 2.2160695162364510 0.0
4.1403667699769571 2.0396735242182520 0.0
3.1046596529235919 2.1896987400306900 0.0
3.7411397825212278 2.5821456890276098 0.0
1.2605507156853122 -0.7698337129820049 0.0
3.2783225078263802 0.6453290404024031 0.0
4.0013829275902415 0.1358538806307016 0.0
1.6698199825522950 4.0683863298082557 0.0
2.2521155634723309 1.8645491401262058 0.0
0.7057131801719153 0.6015111739222641 0.0
4.0083055091741437 2.5975235000146286 0.0
4.2928059536330405 2.1681192369871778 0.0
3.9087338584170328 1.1949320009802780 0.0
3.8206147077956110 2.1982557208634095 0.0
3.8233852647074555 2.9140835063838892 0.0
3.4282250722945404 0.0758550570998973 0.0
3.9096553390376880 3.4744911213429006 0.0
3.7967659678720578 2.4546102215126542 0.0
3.7431125793146536 1.9721780868464973 0.0
3.5947374171791999 1.7516893022490547 0.0
2.8234117050265812 1.7841882011412724 0.0
3.3586079595202833 1.3918122915336950 0.0
3.1970134609074239 1.6629774385115559 0.0
3.1545503453664132 2.3314107683746776 0.0
3.2813572794374002 2.5089727190832711 0.0
3.0196784186045171 -0.5010236810456292 0.0
3.6098368369438685 3.8489759210463657 0.0
2.5188456601954150 2.1194566267839008 0.0
2.8945061959266170 1.4055028543154804 0.0
3.9280532845788030 0.5437539195967138 0.0
2.3236586095345761 0.3691087291248887 0.0
3.6829774017877797 1.2376239632372401 0.0
2.7983175690265076 2.6268386358810711 0.0
3.4915988092092594 4.5880927004711136 0.0
3.6353769243351644 2.6417717385654234 0.0
2.2358956560750669 1.3146340078956469 0.0
4.3386169115550208 2.3576587002342517 0.0
4.0208065400272410 2.5772807448061741 0.0
2.8509571721563183 -0.7937749999974550 0.0
4.1176480502916739 1.8298119208364463 0.0
2.5121658263129265 2.0256909457271104 0.0
2.5534843319760232 1.0779567658544766 0.0
3.9394228254335553 2.7233624149135585 0.0
2.7297916118931576 1.3550388405515943 0.0
3.8242247611199494 -0.4323463055490075 0.0
1.9607338763122886 1.4247132162286029 0.0
2.2323770079848519 0.6165651464017600 0.0
2.0831745822413699 0.0400116050725637 0.0
4.1828134584308225 2.4848716057395661 0.0
2.6003068403986704 1.7151826882747152 0.0
2.8094556285362859 2.4549328011026872 0.0
2.9347126207614007 4.7381538523615498 0.0
2.3414303788105673 1.2500236825776625 0.0
2.5252184928943953 2.8797039849219019 0.0
2.1864454611283741 1.6513700219509690 0.0
3.2864680269297089 3.5015119508084678 0.0
1.8244990096033413 1.7703520609273324 0.0
3.9899137807345824 -0.0946977073631277 0.0
3.4951301329800701 2.2540476885700036 0.0
3.8992578773469977 2.5721366780416055 0.0
4.0054692987746403 2.0160088051231848 0.0
4.0426070986686824 2.1182092726682735 0.0
3.6263645805480778 0.4581174496732508 0.0
3.1134633729411645 1.6000401092650332 0.0
1.6451356235236172 1.6761271523312473 0.0
2.2296649395949792 1.0642323972612944 0.0
2.8651705668487568 -1.0484703925359218 0.0
3.7413258981357105 2.5598764263582496 0.0
3.8687134751202867 1.9887469103445117 0.0
1.4131950063210938 0.0754109264226074 0.0
2.0251833480328592 1.1015422166990705 0.0
3.7373490377718213 3.1640376979997873 0.0
1.1165269846790165 0.4464107056847369 0.0
1.8313756776905568 3.2599923799929189 0.0
1.4625412936675284 0.8454202189026814 0.0
3.9875375435642764 1.5928360455828570 0.0
1.8406161052664567 2.2642020985721683 0.0
1.0882412765997647 0.7217388266765189 0.0
2.1246099937353837 2.3889192716450363 0.0
2.7843759942549808 3.3820619845471400 0.0
3.3326012747776042 1.1076689165857878 0.0
3.8268389290442086 0.6556564567720847 0.0
3.5692349356845265 2.2170040201903678 0.0
3.7620259048215519 -1.1284815962861792 0.0
3.2719183906663623 1.7651895108516662 0.0
4.0314658742001432 1.8135540056341832 0.0
1.6392560083594678 -0.3341676393882081 0.0
1.4171816439830955 1.5119909659660495 0.0
3.4462959619102111 2.5835999337460223 0.0
1.2907396994076434 1.8025135643367034 0.0
3.6110773196587060 2.7434651129582894 0.0
3.9316956736638056 1.0960656619208278 0.0
1.4521261995250772 0.7702367105985387 0.0
1.3675623771799210 1.3026577284986860 0.0
3.9163758435880447 -0.9324421750016390 0.0
1.8249955437187031 1.8427209561974875 0.0
1.5032722560336367 0.8473459342359991 0.0
1.2497579735517932 0.1602254225915382 0.0
3.7072494472193447 2.3475628079180115 0.0
4.0233222210394262 0.1519096472515381 0.0
3.1390544092894732 -0.3122957216217416 0.0
1.5934213063557987 3.1018860728403883 0.0
1.1795937390983899 0.9992655505163215 0.0
4.0973008606384891 2.1537164015605730 0.0
1.3275426952916591 0.8013729896363290 0.0
1.5294369272017150 2.7801423627124970 0.0
3.6917087269620494 2.1069145880770197 0.0
1.3256454765305876 -0.2688669589456362 0.0
3.3210449666315047 0.8077946537597459 0.0
3.1582467597393888 2.4884071676781936 0.0
2.6858074499401967 -1.4077460931457040 0.0
4.1035640157348361 2.6156656897739810 0.0
3.4228357766445776 1.9693941172800915 0.0
3.8148733266111448 0.2181909167595384 0.0
2.0000742507638294 3.0560680822522230 0.0
3.6272339330043541 3.6725826624076827 0.0
2.4429985371518410 4.0338200084125093 0.0
0.8525133968508422 0.8067791589653280 0.0
3.7642517437689640 2.5378371893887430 0.0
1.0525983155630392 0.5565952053592194 0.0
2.8468259742717303 0.2526892034807952 0.0
2.1253589884465169 2.2099357731041285 0.0
3.6020548098924459 2.8374283273730732 0.0
3.1213932428442788 1.0522308076282807 0.0
0.8216712153010248 0.5892537236327371 0.0
4.1654170701220643 2.0684399181473108 0.0
4.1212035892708947 -0.4599759166100874 0.0
3.5666343526407580 1.6530025529276804 0.0
2.2868491420473069 1.5844706255888741 0.0
0.7641786053109495 3.4574472034235928 0.0
0.9836054315743128 0.8438354727969678 0.0
4.2433243057147276 2.0432145955525618 0.0
1.3044292104050126 1.0392062078451101 0.0
1.2336553776001233 0.4809754301317330 0.0
3.1068933411512072 1.8387474565794242 0.0
1.4062590230771861 -0.2953524041875040 0.0
4.2650450447801163 2.4535700186793306 0.0
3.7318985695469911 1.6943781676687428 0.0
3.1836412341354796 2.2194952912137880 0.0
2.8935747712778310 2.9965655582359747 0.0
3.9336592892999058 3.2609382885046587 0.0
0.9549542005848877 0.3014773775935545 0.0
1.7262055409086992 2.4101712281108782 0.0
4.0705693754199164 2.5428718933918151 0.0
3.6905426787144244 -1.4037833847388297 0.0
1.2131529808035357 3.3076046101101753 0.0
1.1675422382207183 0.4793336387183846 0.0
0.9366344764164738 0.3731571870645935 0.0
0.8944697814596905 0.0547777107180592 0.0
4.1175536940308843 2.4630134603232459 0.0
3.8411948144628107 2.8411773607599371 0.0
2.7338377262274984 1.6061626727126741 0.0
1.0308287979982467 1.4839718059513984 0.0
3.9696041753865803 2.6455760663639536 0.0
4.1713574826846553 2.3725203969099717 0.0
4.3046046516751497 2.2263141779372484 0.0
4.0793909080423889 1.9572581850814741 0.0
1.6335522153674664 2.3202484217782255 0.0
3.8012384227758229 -0.1694356773965439 0.0
1.2092096565735158 0.6106955546005859 0.0
3.8597267565687190 1.5580578397648712 0.0
3.9420693224615118 1.4396576469563667 0.0
2.5529045450771162 1.7441550598098634 0.0
3.0583946322074724 1.5151190716140837 0.0
3.0634770205439481 2.0688446748295881 0.0
3.0843807587793983 1.9487764770832050 0.0
3.3684066821096663 1.7843508141130033 0.0
3.9860969693224169 2.2638336374552974 0.0
1.0426829816341936 0.1439216724958242 0.0
2.8818009943251539 2.1273634326560051 0.0
2.4110905114122563 0.8578461508926798 0.0
2.7226499592624855 1.9733047791871370 0.0
2.4119694930363917 -0.0433332368014375 0.0
4.1482138555787040 -0.7669960590204581 0.0
0.9399288235720102 0.9566580177518044 0.0
2.3130106834904427 -1.0760627000943201 0.0