# vtk DataFile Version 3.0
LucasCarvalhoTCC Results
ASCII

DATASET POLYDATA
FIELD FieldData 1
TIME 1 1 double
4.5

POINTS 531 float
0.02430399999999999 0.16425 0.0
0.5913384 0.481878 0.0
1.30475 0.591832 0.0
0.774126 0.951272 0.0
0.04779564148251592 0.1966194329439859 0.0
0.0726092153537953 0.2279866320496896 0.0
0.09876577335895967 0.2582426022760065 0.0
0.1262817198684718 0.2872673048853742 0.0
0.1551671626852806 0.3149288071400502 0.0
0.1854238368919928 0.3410826624766006 0.0
0.2170424591499632 0.3655716640299072 0.0
0.2499995164635996 0.3882263409476824 0.0
0.2842534387828506 0.4088665906889567 0.0
0.3197403359862048 0.4273050841371062 0.0
0.3563695945475563 0.4433531534921038 0.0
0.3940201673622058 0.4568300511916809 0.0
0.4325386107291805 0.4675762214989666 0.0
0.4717406913237268 0.4754709112408955 0.0
0.5114182513144845 0.480453442081874 0.0
0.5513531678859215 0.4825464217651069 0.0
0.6182637923774223 0.5096055604109244 0.0
0.647389101376845 0.5350126187545199 0.0
0.6784752958296183 0.5579802184492302 0.0
0.7112421079139344 0.5784810076698811 0.0
0.7454110434104482 0.5965507527581431 0.0
0.7807301979183381 0.6122562812860965 0.0
0.8169827939052532 0.6256694297140926 0.0
0.853985522124928 0.6368498290413532 0.0
0.8915818964261243 0.6458353363890481 0.0
0.9296339776508085 0.6526379336565091 0.0
0.9680139759519513 0.6572432424840469 0.0
1.006596418266983 0.659612648128084 0.0
1.045251165872634 0.6596877658251245 0.0
1.083837680945672 0.657397570658483 0.0
1.122201320191055 0.6526688455666412 0.0
1.160173053543044 0.6454405726452737 0.0
1.197574286953346 0.6356824063786186 0.0
1.23422961949795 0.6234159704281613 0.0
1.26998758503999 0.6087366500005643 0.0
1.285086682927543 0.6256533177085738 0.0
1.263669745906668 0.6583917156018083 0.0
1.240480125919214 0.6898988493917133 0.0
1.215532715641304 0.7200329197235763 0.0
1.188869833862339 0.7486599839005789 0.0
1.160556835593143 0.7756559317113654 0.0
1.130680194163798 0.8009104211039757 0.0
1.099347083827048 0.8243335727704395 0.0
1.066684425336412 0.8458643604021228 0.0
1.03283497048792 0.8654772531176074 0.0
0.9979492572630678 0.8831824104874066 0.0
0.9621749986495024 0.8990166556695112 0.0
0.9256475378616493 0.9130272060048579 0.0
0.8884846540507749 0.9252538945090274 0.0
0.8507866567183312 0.935715378288671 0.0
0.8126405010322847 0.9444016349017643 0.0
0.7365055179612304 0.9396161853607135 0.0
0.699310855231089 0.9266666891603924 0.0
0.6626179171945521 0.9123577070090924 0.0
0.6264901449910028 0.8966765244755546 0.0
0.5909789825447118 0.8796450886595113 0.0
0.556124897941028 0.8613059841617771 0.0
0.5219601957009091 0.8417124664434518 0.0
0.4885110616878257 0.8209207172498462 0.0
0.4558007060429968 0.7989848675704875 0.0
0.4238520247653796 0.775953675763176 0.0
0.3926900138417566 0.7518687036338616 0.0
0.3623437622133722 0.7267636709390595 0.0
0.3328479550295906 0.7006647540504483 0.0
0.3042438201183181 0.6735915983461908 0.0
0.2765795358619001 0.6455588748284606 0.0
0.2499101143933102 0.6165781952942546 0.0
0.2242967982692083 0.5866601984136335 0.0
0.1998060807431611 0.5558166834807132 0.0
0.1765083808984156 0.5240625786010467 0.0
0.154476512720734 0.491417660368959 0.0
0.133784033184808 0.457907916333494 0.0
0.114503564227142 0.4235664945146766 0.0
0.09670517293008124 0.3884342245925089 0.0
0.0804548910754031 0.3525597611689231 0.0
0.06581337946329963 0.3159993090744527 0.0
0.05283482490365372 0.2788161107032479 0.0
0.0415660226296666 0.2410796291505872 0.0
0.03204569406625649 0.2028646095712164 0.0
0.5272009874003867 0.6419624505772817 0.0
0.7421848286576707 0.7716726266421574 0.0
0.8789503364783713 0.7829234141383637 0.0
0.6149390992905563 0.7449438030688011 0.0
0.4064556042659638 0.5942834991165423 0.0
0.9875021850865396 0.7666507358101158 0.0
0.3188065960661005 0.539594034984892 0.0
0.61365100263957 0.6399487878797632 0.0
0.8049090660915541 0.8464379870891131 0.0
0.7099820328572021 0.6828840522539854 0.0
0.5239467234991928 0.7406922291088611 0.0
0.8154056325591208 0.7211774015928547 0.0
0.6676178829014909 0.8152713180209475 0.0
0.4416080359619968 0.674360953773491 0.0
0.489443615375965 0.5654986742123573 0.0
1.076665773779852 0.7387182918829318 0.0
0.250390543112057 0.4877450112830265 0.0
0.5736819937919005 0.5790366884881447 0.0
0.7263706755366466 0.8615301097563091 0.0
0.940143307772686 0.8233944909985552 0.0
0.927065543677544 0.7236459161626674 0.0
0.8744389806957806 0.8609114380468947 0.0
0.336888362650554 0.6081958070931937 0.0
0.2030757334857187 0.4383942902513459 0.0
0.3861483329720647 0.5255533415902591 0.0
0.5621001921466506 0.7923778419149285 0.0
0.6822897332295245 0.7428043323059399 0.0
0.5764061681675353 0.6881266532454204 0.0
1.129195449682892 0.7163224153578123 0.0
0.8157794419559141 0.7831214907157077 0.0
0.3806644703311284 0.6554275822782399 0.0
0.7695737871052837 0.669593045341503 0.0
0.4699375460410929 0.6217118815516158 0.0
0.6830867370872363 0.630350317562806 0.0
1.040416897214502 0.7929392348941093 0.0
0.4604428393605979 0.7321209818568342 0.0
0.8729552856459739 0.7015083313474691 0.0
1.017010765275644 0.7166925631396708 0.0
0.6458785458483771 0.6946878992565794 0.0
0.7733575582969163 0.8941098392103913 0.0
0.4457537579383052 0.5273353624588528 0.0
0.163830623786951 0.3903175742448083 0.0
0.6095823984734953 0.8256600013628639 0.0
0.2618074352614998 0.5435604438425528 0.0
0.6287880420949764 0.5875838132975476 0.0
0.3100402147222924 0.4835410260423071 0.0
0.5422177893302824 0.5343158927797464 0.0
0.9964262112680041 0.8213447667248638 0.0
0.4971609598823845 0.6906859160718212 0.0
0.5740517260168769 0.633982031239429 0.0
0.7423299505107201 0.7218768583704394 0.0
0.767147744476665 0.819658485932403 0.0
0.9427329070375209 0.7774595780066723 0.0
0.8375285793481674 0.8869398470561132 0.0
0.2879426409425497 0.5872676364411625 0.0
0.6797562629663748 0.8647676397847667 0.0
1.171674168522591 0.6949964056806914 0.0
0.5261010885606964 0.6055079299963303 0.0
0.7081534744446967 0.8078672678314597 0.0
0.9681672688626206 0.705385299758921 0.0
0.7364069054947873 0.6432919177737106 0.0
0.363826821075015 0.5678764295233764 0.0
0.826170216989844 0.6605791783255148 0.0
0.1284439337099834 0.3602715082199688 0.0
0.518140828090112 0.783905985497134 0.0
0.8452908336054504 0.8167586152211004 0.0
0.2015204468558833 0.492088055688788 0.0
0.4005883523205732 0.7121294304856254 0.0
0.3551392316798573 0.4864133323669936 0.0
0.2501727034998737 0.4443035857235296 0.0
0.857938396055507 0.7390317828783199 0.0
0.9245301815433076 0.8668102132501951 0.0
0.5702050292970205 0.7323438487067678 0.0
1.111607633075016 0.759318252473435 0.0
0.6317193755596126 0.7853891653733797 0.0
0.7921381265818805 0.7497379312370454 0.0
1.088942426366261 0.7015435214091311 0.0
0.5818207607488639 0.5352340257544296 0.0
0.4203532416309484 0.6369649631143086 0.0
0.4854818714173937 0.5131439318707094 0.0
0.4475429831528036 0.5690430472086269 0.0
0.8968753306595262 0.8225547516037004 0.0
0.6339557898063448 0.8543470494763272 0.0
0.3416564411796998 0.6516449771136894 0.0
1.082970576264455 0.7856036465430698 0.0
0.2255204648032354 0.5229464838393291 0.0
0.7335043541589261 0.9012744999286941 0.0
0.9097052989734319 0.6921177492721042 0.0
0.5363428275528405 0.6992389299864537 0.0
0.9657777897300287 0.8588269742066746 0.0
1.025947476617909 0.7556651119714124 0.0
0.1090829970454354 0.3226173037985549 0.0
0.4836644525169279 0.7663103281018557 0.0
0.6910856326166581 0.777867529208468 0.0
0.6694391877434097 0.5946719355048008 0.0
0.2954883530575775 0.4501042133334518 0.0
0.6746032498128595 0.6643957640016517 0.0
1.054636636429828 0.6974583960183274 0.0
0.8939255235163368 0.7470597914537064 0.0
0.3749741568555516 0.6190655430398917 0.0
1.204101441114554 0.6801433534918062 0.0
0.6130053345415899 0.6785345531932346 0.0
0.7679719108452487 0.8562682874000032 0.0
0.9710820219997449 0.8008372590855476 0.0
0.1608022352294362 0.4242591696906621 0.0
0.2865399820604418 0.5141369963640697 0.0
0.1962258775846918 0.4008383427744516 0.0
0.6210920174972845 0.5516143721732873 0.0
0.4843009180093644 0.6583977883024127 0.0
0.5695029195102991 0.8267073580550881 0.0
0.9562891163300477 0.7436031251145003 0.0
0.4174190173896447 0.5044019081507806 0.0
0.410860431802698 0.5535781448116232 0.0
0.8709320861791604 0.9002602580953145 0.0
0.427354757192076 0.7399041791280969 0.0
0.7107884943357746 0.7172753954970394 0.0
1.030382288537246 0.8267335242583146 0.0
0.7737440530215844 0.7115751739064536 0.0
0.8042035044852396 0.9123190309183211 0.0
0.0480920891272324 0.2181807374272496 0.0
0.3695079235280397 0.6886893012630373 0.0
0.773516204411121 0.7830673827025234 0.0
0.302776671534508 0.6210168062901616 0.0
0.7150573728414059 0.6149413270404035 0.0
0.5863276441271683 0.769748656022605 0.0
1.143752049005473 0.6780480059671409 0.0
0.6477132714923303 0.7318578097016951 0.0
0.8380052680878572 0.8531154611905379 0.0
0.5966224054445893 0.6051703156405629 0.0
0.3207240819522855 0.5772784374275386 0.0
0.3520131451607586 0.5263918604440553 0.0
0.8573528491808811 0.6709738722470224 0.0
0.1797236573643203 0.460867988842514 0.0
0.5540828191547277 0.6661566975721369 0.0
1.158039843450239 0.7357536542887966 0.0
0.08638006908591334 0.286237566592474 0.0
0.790861820497242 0.6466611559014377 0.0
0.5362079962218838 0.8121454698907893 0.0
0.9405172130232713 0.6862060282668497 0.0
0.6039359324506977 0.711463595189489 0.0
0.4440093493753478 0.6096873538428137 0.0
0.5500746279087338 0.7620941994763282 0.0
0.2578504496023611 0.5739900063885278 0.0
0.502526452350101 0.6209820553182169 0.0
0.6799833858912959 0.7033681517905728 0.0
0.7183487148906835 0.7518430858176317 0.0
0.8006701240044786 0.8118713608014352 0.0
0.1304684854221093 0.3934039266496895 0.0
1.00789495394612 0.7937868725857601 0.0
0.696960396255943 0.893370944718147 0.0
0.8258315165019564 0.7538365084989149 0.0
0.8462950259502577 0.775614153529746 0.0
0.4082018839227037 0.6749460331934272 0.0
0.7025889307788081 0.8378536687159448 0.0
0.4666676520109517 0.6984557076050861 0.0
[...]
POINT_DATA 531

VECTORS Velocity float
0.0000000000000000 1.0000000000000000 0.0
0.0000000000000000 1.0000000000000000 0.0
2.6381865036996821 -0.9593331798477388 0.0
1.7794642228770048 1.0216777961244268 0.0
0.0000000000000000 1.0000000000000000 0.0
0.0000000000000000 1.0000000000000000 0.0
0.0000000000000000 1.0000000000000000 0.0
0.0000000000000000 1.0000000000000000 0.0
0.0000000000000000 1.0000000000000000 0.0
0.0000000000000000 1.0000000000000000 0.0
0.0000000000000000 1.0000000000000000 0.0
0.0000000000000000 1.0000000000000000 0.0
0.0000000000000000 1.0000000000000000 0.0
0.0000000000000000 1.0000000000000000 0.0
0.0000000000000000 1.0000000000000000 0.0
0.0000000000000000 1.0000000000000000 0.0
0.0000000000000000 1.0000000000000000 0.0
0.0000000000000000 1.0000000000000000 0.0
0.0000000000000000 1.0000000000000000 0.0
0.0000000000000000 1.0000000000000000 0.0
0.0000000000000000 0.0000000000000000 0.0
0.0000000000000000 0.0000000000000000 0.0
0.0000000000000000 0.0000000000000000 0.0
0.0000000000000000 0.0000000000000000 0.0
0.0000000000000000 0.0000000000000000 0.0
0.0000000000000000 0.0000000000000000 0.0
0.0000000000000000 0.0000000000000000 0.0
0.0000000000000000 0.0000000000000000 0.0
0.0000000000000000 0.0000000000000000 0.0
0.0000000000000000 0.0000000000000000 0.0
0.0000000000000000 0.0000000000000000 0.0
0.0000000000000000 0.0000000000000000 0.0
0.0000000000000000 0.0000000000000000 0.0
0.0000000000000000 0.0000000000000000 0.0
0.0000000000000000 0.0000000000000000 0.0
0.0000000000000000 0.0000000000000000 0.0
0.0000000000000000 0.0000000000000000 0.0
0.0000000000000000 0.0000000000000000 0.0
0.0000000000000000 0.0000000000000000 0.0
2.6782998595175265 -1.7943024346991228 0.0
3.6707760693932574 -2.3036977137879973 0.0
3.7614606779392887 -2.2274363973171840 0.0
3.7620452384292369 -1.9748809255888566 0.0
3.8508058376857388 -1.7591307644929837 0.0
3.9491348645607949 -1.4556204585838535 0.0
4.0042887288574889 -1.2970475432760331 0.0
4.1202056892866512 -1.0681144400774356 0.0
4.0896066174444394 -0.7668412865491530 0.0
4.0658005551421770 -0.5005646109088155 0.0
3.9297985566728171 -0.2084699980650281 0.0
3.7115365679941847 0.0845836814497218 0.0
3.5287803486574174 0.3129623948786930 0.0
3.1803740566572762 0.5540508294914089 0.0
2.5760080742722673 1.0891355682329706 0.0
1.7543969919268549 0.9457972568936672 0.0
0.0000000000000000 0.0000000000000000 0.0
0.0000000000000000 0.0000000000000000 0.0
0.0000000000000000 0.0000000000000000 0.0
0.0000000000000000 0.0000000000000000 0.0
0.0000000000000000 0.0000000000000000 0.0
0.0000000000000000 0.0000000000000000 0.0
0.0000000000000000 0.0000000000000000 0.0
0.0000000000000000 0.0000000000000000 0.0
0.0000000000000000 0.0000000000000000 0.0
0.0000000000000000 0.0000000000000000 0.0
0.0000000000000000 0.0000000000000000 0.0
0.0000000000000000 0.0000000000000000 0.0
0.0000000000000000 0.0000000000000000 0.0
0.0000000000000000 0.0000000000000000 0.0
0.0000000000000000 0.0000000000000000 0.0
0.0000000000000000 0.0000000000000000 0.0
0.0000000000000000 0.0000000000000000 0.0
0.0000000000000000 0.0000000000000000 0.0
0.0000000000000000 0.0000000000000000 0.0
0.0000000000000000 0.0000000000000000 0.0
0.0000000000000000 0.0000000000000000 0.0
0.0000000000000000 0.0000000000000000 0.0
0.0000000000000000 0.0000000000000000 0.0
0.0000000000000000 0.0000000000000000 0.0
0.0000000000000000 0.0000000000000000 0.0
0.0000000000000000 0.0000000000000000 0.0
0.0000000000000000 0.0000000000000000 0.0
0.0000000000000000 0.0000000000000000 0.0
3.9703292666935983 2.6007247237817013 0.0
4.2805871290041928 2.1126666661647850 0.0
3.9191242478894943 1.1627268075944592 0.0
3.8373679223461772 2.2081349972157778 0.0
3.8146910892802768 2.9214328590554510 0.0
3.4698467416077463 0.0966533999154121 0.0
3.9072819382575354 3.4794899883261832 0.0
3.7520046038937358 2.4417451711754725 0.0
3.7317325461037134 1.9158640864636374 0.0
3.5688038230340617 1.7236736345675798 0.0
2.8569347126566607 1.8199959081410817 0.0
3.3816959680084522 1.3618509606697056 0.0
3.2402333656874385 1.6722315550039994 0.0
3.1634435969326709 2.3561421151014543 0.0
3.2648640287820991 2.5027290216320699 0.0
3.0426697454549476 -0.4831356880711348 0.0
3.6096897523051443 3.8491691619802331 0.0
2.5036820687548174 2.1169458539667754 0.0
2.9293002799241341 1.4024541214684483 0.0
3.8990987807890547 0.5453539052556222 0.0
2.3905431692643462 0.3735848885226232 0.0
3.6428385151614839 1.2117807698640122 0.0
2.8004238010235651 2.6362226947685641 0.0
3.4917167947192098 4.5879937360961298 0.0
3.6278814784556466 2.6432434145097834 0.0
2.2852274254166831 1.3443249789852392 0.0
4.3218084753294121 2.3260938579494610 0.0
3.9985377280402141 2.5820804987737271 0.0
2.8612173817896691 -0.7893840716777821 0.0
4.1105379266924063 1.7705005412405517 0.0
2.5201296401439062 2.0417212791057593 0.0
2.5541042757134140 1.0624809892272233 0.0
3.9151234199699672 2.7276425804655506 0.0
2.7031144024847311 1.3446870080758790 0.0
3.8207902084625633 -0.3924881990760333 0.0
1.9897304391958921 1.4512821514386975 0.0
2.2829716613293023 0.6202935882942500 0.0
2.1306697208708387 0.0517209010919437 0.0
4.1471354798299513 2.4635119623647497 0.0
2.6164887014377576 1.7037748794316103 0.0
2.7989342370627983 2.4524515541028169 0.0
2.9347378442445202 4.7381343740702091 0.0
2.3895625119010631 1.2751667232343238 0.0
2.5248269951972926 2.8806477614895751 0.0
2.1702240908630994 1.6463709643014912 0.0
3.2852468445197656 3.5022120321746382 0.0
1.8199374403384270 1.7692524028580932 0.0
3.9541326005156474 -0.0582696487386082 0.0
3.5037030378171430 2.2831185307048560 0.0
3.8529137474255184 2.5667098558772503 0.0
3.9890996142522099 1.9675359257222043 0.0
4.0383289200617982 2.0654579748950139 0.0
3.6551593106974827 0.4647266819854720 0.0
3.0834798122367810 1.5732155438058577 0.0
1.6458686009635235 1.6785596152401487 0.0
2.2747732620034324 1.0787072337697214 0.0
2.8684680753429688 -1.0442819676335973 0.0
3.7081962490092888 2.5547284123800771 0.0
3.8894962572885645 1.9735848518557038 0.0
1.4615095061929022 0.0814248979759770 0.0
2.0121278184143718 1.0841246771601560 0.0
3.7333388689713005 3.1709456704781660 0.0
1.1309619353872604 0.4462205064485719 0.0
1.8313784759197509 3.2599870919802316 0.0
1.4948341134278864 0.8681495885766018 0.0
3.9677364370247830 1.5437422938301399 0.0
1.8405375984840973 2.2639623047226096 0.0
1.1004028438868030 0.7337822214981743 0.0
2.1209957239993882 2.3899250907778069 0.0
2.7846128518743436 3.3821426588970334 0.0
3.3740679321936895 1.0885452470198524 0.0
3.7597751380687812 0.6605898744108519 0.0
3.5860105964785256 2.2421915574680278 0.0
3.7618957944415747 -1.1105986922291187 0.0
3.3151561835269274 1.7830446931601431 0.0
4.0300255077342237 1.7600891386158675 0.0
1.6551925695045024 -0.3299054961944748 0.0
1.4131559411566614 1.5107886008966787 0.0
3.4448445369715452 2.5996163575992788 0.0
1.2852508675373444 1.8002916302726304 0.0
3.5969578609077075 2.7419246902519023 0.0
3.9027729984994428 1.0688190532112529 0.0
1.4869815404437496 0.7873141556889157 0.0
1.3721135335546029 1.3107759046289940 0.0
3.9086345893093193 -0.8945475003935052 0.0
1.8247537645240544 1.8426570884403355 0.0
1.5233554956608797 0.8471666665798779 0.0
1.2919648768641701 0.1596074634845094 0.0
3.7105171579648726 2.3704787336662445 0.0
3.9438702125870604 0.1806223098031668 0.0
3.1774713017872132 -0.2831815417165608 0.0
1.5934205214370603 3.1018872020252708 0.0
1.2049580556178352 1.0232623797795286 0.0
4.1085618366511776 2.1329814241600742 0.0
1.3129772804690385 0.7952414980648920 0.0
1.5294518191038897 2.7802713550747367 0.0
3.6543633390222681 2.0843008473546427 0.0
1.3482095034353121 -0.2635093887419373 0.0
3.3737118251814380 0.7987025221482843 0.0
3.1594161900287019 2.5027229363280239 0.0
2.6862507864720091 -1.4068927096972119 0.0
4.0637243859320122 2.6001804208163750 0.0
3.4358197212126975 1.9380277207815653 0.0
3.8160005118549036 0.2360073863003803 0.0
2.0001010169532321 3.0559852630367623 0.0
3.6261533778126407 3.6742861076646820 0.0
2.4430898036642721 4.0337889934900115 0.0
0.8467660955844838 0.8044919895622500 0.0
3.7520439809255919 2.5549505708777005 0.0
1.0823727345430358 0.5720796582318599 0.0
2.9105608229505009 0.2632657497248741 0.0
2.1179247220606041 2.2087280997382344 0.0
3.5916882432216015 2.8392449215308488 0.0
3.0764520496527505 1.0454478384903738 0.0
0.8361109160164695 0.6025472199451094 0.0
4.1410591425775225 2.0295085844819751 0.0
4.0699230980900989 -0.4125763825776567 0.0
3.5666118921585657 1.6146032693144430 0.0
2.2810450045234991 1.5754912147202829 0.0
0.7641786060756920 3.4574472040899935 0.0
0.9915103624468273 0.8537967284327783 0.0
4.2299779850808683 1.9813023706827479 0.0
1.3059294162348571 1.0425279587814389 0.0
1.2187340302358110 0.4733147002925694 0.0
3.1513996439359908 1.8656197400559353 0.0
1.4121111769622821 -0.2942489466032219 0.0
4.2475582981838800 2.4361452138530995 0.0
3.7071274371839689 1.6539112476263274 0.0
3.1520750318824629 2.2142031186329976 0.0
2.8946563399508389 3.0032958215136203 0.0
3.9278199427759404 3.2638951078500664 0.0
0.9768249986354441 0.3035501234197166 0.0
1.7261846943883421 2.4099988799621288 0.0
4.0358366889335580 2.5486725423318966 0.0
3.6901404070780885 -1.3925283989419008 0.0
1.2131526126589489 3.3076046625649460 0.0
1.1716059912648877 0.4770422313295019 0.0
0.9646416850779785 0.3850264765230863 0.0
0.9274078588453095 0.0553759428645482 0.0
4.0998619084944377 2.4625072872850082 0.0
3.8263089829253820 2.8477045924197433 0.0
2.7765275982633564 1.6390904203542800 0.0
1.0308536426274451 1.4850292791841075 0.0
3.9386401898920673 2.6481825245328277 0.0
4.1390526789249487 2.3407171493436540 0.0
4.2885954890161297 2.1802873776868066 0.0
4.0661985733437893 1.8933330440691731 0.0
1.6335646798287851 2.3202313043194658 0.0
3.8037929527198360 -0.1313202096480373 0.0
1.2325721849695328 0.6178894241382499 0.0
3.8719084001317428 1.5164554359018765 0.0
3.9497984545389131 1.3959104257686961 0.0
2.5640139188369191 1.7643724061054988 0.0
3.0960803592610691 1.5115276000632287 0.0
3.0780751715971122 2.0972144360905887 0.0
3.0526760238050468 1.9360949384125521 0.0
3.3545256295705665 1.7480676542290787 0.0
4.0041176796764963 2.2557763941928255 0.0
1.0761160198314870 0.1511432620382256 0.0
2.8656216842535152 2.1242718629530075 0.0
2.4517208254227496 0.8528687115586253 0.0
2.7504739661025948 2.0034826317301064 0.0
2.4714295439611185 -0.0293446032503741 0.0
4.1115559541050635 -0.7172321202367526 0.0
0.9397972331171252 0.9567932348871656 0.0
2.3130048246544526 -1.0761018224866561 0.0
4.0437166967549842 2.5866515399500853 0.0
2.8346235226416430 1.4251043082768571 0.0
3.1122006321770406 1.8329819625653483 0.0
3.4917213822625519 3.9779419185143019 0.0
0.5262238251240701 1.6423742974593571 0.0
3.7399164027224088 2.7446274025370609 0.0
1.5473376148323397 1.8406550292413935 0.0
2.9255770944378150 -0.6883720682300800 0.0
3.7924384684447934 0.8268005218243417 0.0
3.6062000346009966 2.4675240716420870 0.0
0.6388049233409280 0.5065324916465276 0.0
1.2007717290869702 2.2396613841557227 0.0
3.1055751649680232 2.7533303831484228 0.0
1.7180458816069235 2.9227582934174765 0.0
1.0171612193143256 1.8903873316904394 0.0
0.8179154368317183 1.5831432810655570 0.0
1.6637306639299754 3.0813955216894935 0.0
1.4449668292875424 1.1750667478773151 0.0
2.1902931449410223 -1.4149184172862881 0.0
2.1253782473656848 1.5848218450489737 0.0
0.6743032688331084 0.2958556872098211 0.0
0.7647106802359062 0.5798015534044905 0.0
3.9184160895790408 3.4630370374895367 0.0
1.2693395155388780 -0.0766901542110630 0.0
3.3327021982647635 0.8366744886536637 0.0
4.0254469093881013 -0.1339418657784666 0.0
3.8742046140539075 2.3932470274752311 0.0
1.1250736712242451 3.3292141515768998 0.0
2.5674724377197453 0.6946732878221189 0.0
0.6031524250183425 0.3634826242989668 0.0
3.4796805573348095 -0.4530180011157077 0.0
3.6805354070587439 2.6512665059491747 0.0
0.7657586845908080 -0.0130925215941126 0.0
2.6155657700337458 -0.2512097646847334 0.0
2.6784881788718540 1.4380164329464760 0.0
3.6938256147761996 -1.7310789856525663 0.0
0.8194278019366755 0.1070594037543344 0.0
2.4522706989094205 1.5493324488616365 0.0
2.8543957795878194 2.4138537380704097 0.0
2.2207814834086657 1.9565632313831118 0.0
3.8979529189373143 2.5345069172373380 0.0
3.7780808535379093 1.9169264128004833 0.0
2.5236290681715285 1.0988581721529886 0.0
3.7087349645044334 3.7866555564575308 0.0
4.1762606143333132 2.0901387332429189 0.0
0.9406674839800940 0.5968896386656620 0.0
3.1438241531600908 3.2368476806198512 0.0
2.7258299456334507 1.6600257554592368 0.0
4.2123156686651440 2.1775027159751659 0.0
4.1350854525684735 1.9917164342005107 0.0
3.0909943150780546 2.1920286864075065 0.0
3.7272297089584305 2.5741018143495542 0.0
1.2616532490054080 -0.7692832597806761 0.0
3.3365848672115370 0.6500781925210064 0.0
3.9523323298232746 0.1658156979725761 0.0
1.6698280489554549 4.0683857180931797 0.0
2.2555516700284830 1.8706273392797077 0.0
0.7096541492293129 0.6019972825498801 0.0
3.9823346477414439 2.5924681439202759 0.0
4.2753683037142274 2.1196033507299346 0.0
3.9189934385895762 1.1770337831290945 0.0
3.8156867581264589 2.1952619840512044 0.0
3.8203831710847367 2.9100704704503033 0.0
3.4703634575190452 0.1037899611333779 0.0
3.9095311694620265 3.4750051695679494 0.0
3.7783541474542073 2.4564625668534910 0.0
3.7069967775004167 1.9249920310868116 0.0
3.5980733945153696 1.7413790753777154 0.0
2.8311081785288152 1.7985710117376290 0.0
3.4046616594066998 1.3773328649905021 0.0
3.2084416959478270 1.6595018862939472 0.0
3.1508240610838736 2.3342520247814664 0.0
3.2880564120390479 2.4989732848829340 0.0
3.0428085657972357 -0.4827164791596519 0.0
3.6096940799117045 3.8492518256014261 0.0
2.5308806355703206 2.1259637995880714 0.0
2.9003793261334683 1.3965247915151804 0.0
3.8919086771072351 0.5544904220987419 0.0
2.4007556326898132 0.3807376966717795 0.0
3.6263067866854555 1.2195072432747467 0.0
2.7988275190477561 2.6280148759988537 0.0
3.4915983891773328 4.5881046494335607 0.0
3.6353188471364075 2.6403815563350159 0.0
2.2562243760734115 1.3274073388185998 0.0
4.3217020027634891 2.3289381205001898 0.0
3.9955021254249194 2.5742260963361931 0.0
2.8611441320616922 -0.7895389194232483 0.0
4.1076994623767344 1.7863582366525663 0.0
2.5124022613494286 2.0279814174024318 0.0
2.5826108782122952 1.0758253561503057 0.0
3.9243055725929028 2.7132385533748495 0.0
2.7352359470333258 1.3614634831903576 0.0
3.8203913106075582 -0.3904339840325958 0.0
1.9691642781819125 1.4337925294984750 0.0
2.3018142445946368 0.6277919703422974 0.0
2.1322484737459928 0.0540315109900925 0.0
4.1606594105481021 2.4721794602645888 0.0
2.5942975819500051 1.7028891183265233 0.0
2.8141946483036659 2.4515042153034003 0.0
2.9347165342718800 4.7381530873261655 0.0
2.3605534056278250 1.2600625236350500 0.0
2.5253735997389533 2.8801897984386224 0.0
2.1974027329266264 1.6647361760760375 0.0
3.2858894474551685 3.5015093627330653 0.0
1.8424784064502313 1.7723554877047243 0.0
3.9507050225757117 -0.0537549661807986 0.0
3.4864085393122846 2.2614091832607648 0.0
3.8749327862296257 2.5696452919430475 0.0
4.0098271232469012 1.9808812733385743 0.0
4.0147626770480596 2.0702262632348036 0.0
3.6541397083898866 0.4745969601910752 0.0
3.0683085040216049 1.5768789949128765 0.0
1.6455311196584663 1.6766083840509549 0.0
2.2468836901534854 1.0683031958482991 0.0
2.8684281910309073 -1.0444006110986457 0.0
3.7298712803633043 2.5533640111009417 0.0
3.8615668774410161 1.9662049635030430 0.0
1.4670746166632418 0.0856259683229475 0.0
2.0382925736665167 1.0975463153131024 0.0
3.7369845405604227 3.1632568227528464 0.0
1.1473560494300894 0.4530125805479359 0.0
1.8313749808437272 3.2599925407690935 0.0
1.4741307052994119 0.8547772280668523 0.0
3.9539574433786395 1.5570611604646141 0.0
1.8406255550311337 2.2642719158293891 0.0
1.0905025176541892 0.7246951890640654 0.0
2.1241446195107541 2.3887866956136006 0.0
2.7842615735226470 3.3821096480671287 0.0
3.3884670542922328 1.1027449174070214 0.0
3.7507351508002644 0.6662261591930601 0.0
3.5647385181060156 2.2240302672425383 0.0
3.7620990698235262 -1.1108362152147213 0.0
3.2841315522549168 1.7679939809796237 0.0
4.0423588765821847 1.7750927253454074 0.0
1.6548729719176636 -0.3299521619995633 0.0
1.4317689657450718 1.5183991906995336 0.0
3.4416224560745361 2.5831039552080104 0.0
1.2985683685969067 1.8010755243174708 0.0
3.6119471725402108 2.7341488559815721 0.0
3.8922812108299985 1.0813520263818968 0.0
1.4650568260218804 0.7765627606302050 0.0
1.3678849157812456 1.3036767280831152 0.0
3.9089239571203596 -0.8942845475857937 0.0
1.8250182640300787 1.8428947784304042 0.0
1.5071897159146050 0.8443774949386976 0.0
1.3022139082943451 0.1640753185062742 0.0
3.6941964779069063 2.3531879136854634 0.0
3.9389598569416360 0.1841904174708815 0.0
3.1781395375324251 -0.2794181868410395 0.0
1.5934209059723854 3.1018862865827361 0.0
1.1872946017010479 1.0077044334058609 0.0
4.0881616591243590 2.1279675111879466 0.0
1.3346475547668282 0.8078834291298455 0.0
1.5291869724439471 2.7801322345845780 0.0
3.6841915820017519 2.1011689831067613 0.0
1.3482215043380172 -0.2629321318784329 0.0
3.3807598424857601 0.8112924307055578 0.0
3.1580529952051397 2.4892314123281776 0.0
2.6862485514587804 -1.4069058124513525 0.0
4.0764353710643624 2.6056140362796310 0.0
3.4072158333201710 1.9381601411934113 0.0
3.8128902774019893 0.2430414457887299 0.0
2.0000786031823465 3.0560639362434538 0.0
3.6269438586852250 3.6730267916251518 0.0
2.4430074299209679 4.0338146281371241 0.0
0.8610826020676083 0.8159592040203785 0.0
3.7480797286982916 2.5358727749896905 0.0
1.0640638182622406 0.5626262184925570 0.0
2.9155682208164286 0.2708781444857785 0.0
2.1267087803648659 2.2082999210217791 0.0
3.6029207433732418 2.8329674919235361 0.0
3.0661130330571540 1.0494710466785013 0.0
0.8252278602003897 0.5933479895369136 0.0
4.1596644462502947 2.0422625798351532 0.0
4.0686650410473817 -0.4109522017687160 0.0
3.5920939587146927 1.6303669238128831 0.0
2.2692301380056255 1.5760774374805193 0.0
0.7641786060756920 3.4574472040899935 0.0
0.9846639098371118 0.8455942405363772 0.0
4.2231534374393229 1.9922271919238286 0.0
1.3046713971902553 1.0395692315111975 0.0
1.2401205465081071 0.4827478952563941 0.0
3.1204926089401979 1.8476556795954111 0.0
1.4119542725664613 -0.2942792095229534 0.0
4.2451581993779035 2.4367017151824277 0.0
3.6851087078334928 1.6616416028068957 0.0
3.1820144000739861 2.2280052816765177 0.0
2.8940639830429582 2.9973932405709340 0.0
3.9327986004570588 3.2605771213848338 0.0
0.9901868983883517 0.3082845817918991 0.0
1.7262025270426917 2.4101780646126825 0.0
4.0403004201121355 2.5415370534363810 0.0
3.6902140333730253 -1.3927260691584848 0.0
1.2131529315333043 3.3076046659560236 0.0
1.1899309682901797 0.4851080445657581 0.0
0.9466925198700199 0.3771103281057452 0.0
0.9348431300229104 0.0576852750211807 0.0
4.0952870385603264 2.4558761447062603 0.0
3.8345757946331607 2.8326487792965356 0.0
2.7475761265219441 1.6197941689678401 0.0
1.0309470821547111 1.4842787910754160 0.0
3.9509951931725187 2.6364768900016538 0.0
4.1561183333273846 2.3522413457873048 0.0
4.2913558765807007 2.1861608872406273 0.0
4.0482086874405434 1.9047661058737992 0.0
1.6335560887487883 2.3202486225817380 0.0
3.8026128061662452 -0.1262336028637720 0.0
1.2164572007925656 0.6117959393671630 0.0
3.8823638441173309 1.5324614926769313 0.0
3.9503592394378408 1.4135269388008669 0.0
2.5528863991345956 1.7490362697889266 0.0
3.0648712234126201 1.5040750355285868 0.0
3.0601282509513275 2.0757927902096318 0.0
3.0853701318582032 1.9552508986158255 0.0
3.3848087545785206 1.7637065620404506 0.0
3.9814619818823278 2.2479422390291894 0.0
1.0789093204749340 0.1526776564933361 0.0
2.8931519431595891 2.1255014842715148 0.0
2.4745723363971237 0.8649561581747260 0.0
2.7273238080461049 1.9829722318053147 0.0
2.4749259571881344 -0.0241787808658466 0.0
4.1114278907693853 -0.7167306966822874 0.0
0.9400045000217426 0.9568398751712540 0.0
2.3130054020856972 -1.0760989109786896 0.0