# vtk DataFile Version 3.0
LucasCarvalhoTCC Results
ASCII

DATASET POLYDATA
FIELD FieldData 1
TIME 1 1 double
5.1000000000000005

POINTS 531 float
0.02430399999999999 0.16425 0.0
0.5913384 0.481878 0.0
1.30475 0.591832 0.0
0.774126 0.951272 0.0
0.04779564148251592 0.1966194329439859 0.0
0.0726092153537953 0.2279866320496896 0.0
0.09876577335895967 0.2582426022760065 0.0
0.1262817198684718 0.2872673048853742 0.0
0.1551671626852806 0.3149288071400502 0.0
0.1854238368919928 0.3410826624766006 0.0
0.2170424591499632 0.3655716640299072 0.0
0.2499995164635996 0.3882263409476824 0.0
0.2842534387828506 0.4088665906889567 0.0
0.3197403359862048 0.4273050841371062 0.0
0.3563695945475563 0.4433531534921038 0.0
0.3940201673622058 0.4568300511916809 0.0
0.4325386107291805 0.4675762214989666 0.0
0.4717406913237268 0.4754709112408955 0.0
0.5114182513144845 0.480453442081874 0.0
0.5513531678859215 0.4825464217651069 0.0
0.6182637923774223 0.5096055604109244 0.0
0.647389101376845 0.5350126187545199 0.0
0.6784752958296183 0.5579802184492302 0.0
0.7112421079139344 0.5784810076698811 0.0
0.7454110434104482 0.5965507527581431 0.0
0.7807301979183381 0.6122562812860965 0.0
0.8169827939052532 0.6256694297140926 0.0
0.853985522124928 0.6368498290413532 0.0
0.8915818964261243 0.6458353363890481 0.0
0.9296339776508085 0.6526379336565091 0.0
0.9680139759519513 0.6572432424840469 0.0
1.006596418266983 0.659612648128084 0.0
1.045251165872634 0.6596877658251245 0.0
1.083837680945672 0.657397570658483 0.0
1.122201320191055 0.6526688455666412 0.0
1.160173053543044 0.6454405726452737 0.0
1.197574286953346 0.6356824063786186 0.0
1.23422961949795 0.6234159704281613 0.0
1.26998758503999 0.6087366500005643 0.0
1.285086682927543 0.6256533177085738 0.0
1.263669745906668 0.6583917156018083 0.0
1.240480125919214 0.6898988493917133 0.0
1.215532715641304 0.7200329197235763 0.0
1.188869833862339 0.7486599839005789 0.0
1.160556835593143 0.7756559317113654 0.0
1.130680194163798 0.8009104211039757 0.0
1.099347083827048 0.8243335727704395 0.0
1.066684425336412 0.8458643604021228 0.0
1.03283497048792 0.8654772531176074 0.0
0.9979492572630678 0.8831824104874066 0.0
0.9621749986495024 0.8990166556695112 0.0
0.9256475378616493 0.9130272060048579 0.0
0.8884846540507749 0.9252538945090274 0.0
0.8507866567183312 0.935715378288671 0.0
0.8126405010322847 0.9444016349017643 0.0
0.7365055179612304 0.9396161853607135 0.0
0.699310855231089 0.9266666891603924 0.0
0.6626179171945521 0.9123577070090924 0.0
0.6264901449910028 0.8966765244755546 0.0
0.5909789825447118 0.8796450886595113 0.0
0.556124897941028 0.8613059841617771 0.0
0.5219601957009091 0.8417124664434518 0.0
0.4885110616878257 0.8209207172498462 0.0
0.4558007060429968 0.7989848675704875 0.0
0.4238520247653796 0.775953675763176 0.0
0.3926900138417566 0.7518687036338616 0.0
0.3623437622133722 0.7267636709390595 0.0
0.3328479550295906 0.7006647540504483 0.0
0.3042438201183181 0.6735915983461908 0.0
0.2765795358619001 0.6455588748284606 0.0
0.2499101143933102 0.6165781952942546 0.0
0.2242967982692083 0.5866601984136335 0.0
0.1998060807431611 0.5558166834807132 0.0
0.1765083808984156 0.5240625786010467 0.0
0.154476512720734 0.491417660368959 0.0
0.133784033184808 0.457907916333494 0.0
0.114503564227142 0.4235664945146766 0.0
0.09670517293008124 0.3884342245925089 0.0
0.0804548910754031 0.3525597611689231 0.0
0.06581337946329963 0.3159993090744527 0.0
0.05283482490365372 0.2788161107032479 0.0
0.0415660226296666 0.2410796291505872 0.0
0.03204569406625649 0.2028646095712164 0.0
0.5272009874003867 0.6419624505772817 0.0
0.7421848286576707 0.7716726266421574 0.0
0.8789503364783713 0.7829234141383637 0.0
0.6149390992905563 0.7449438030688011 0.0
0.4064556042659638 0.5942834991165423 0.0
0.9875021850865396 0.7666507358101158 0.0
0.3188065960661005 0.539594034984892 0.0
0.61365100263957 0.6399487878797632 0.0
0.8049090660915541 0.8464379870891131 0.0
0.7099820328572021 0.6828840522539854 0.0
0.5239467234991928 0.7406922291088611 0.0
0.8154056325591208 0.7211774015928547 0.0
0.6676178829014909 0.8152713180209475 0.0
0.4416080359619968 0.674360953773491 0.0
0.489443615375965 0.5654986742123573 0.0
1.076665773779852 0.7387182918829318 0.0
0.250390543112057 0.4877450112830265 0.0
0.5736819937919005 0.5790366884881447 0.0
0.7263706755366466 0.8615301097563091 0.0
0.940143307772686 0.8233944909985552 0.0
0.927065543677544 0.7236459161626674 0.0
0.8744389806957806 0.8609114380468947 0.0
0.336888362650554 0.6081958070931937 0.0
0.2030757334857187 0.4383942902513459 0.0
0.3861483329720647 0.5255533415902591 0.0
0.5621001921466506 0.7923778419149285 0.0
0.6822897332295245 0.7428043323059399 0.0
0.5764061681675353 0.6881266532454204 0.0
1.129195449682892 0.7163224153578123 0.0
0.8157794419559141 0.7831214907157077 0.0
0.3806644703311284 0.6554275822782399 0.0
0.7695737871052837 0.669593045341503 0.0
0.4699375460410929 0.6217118815516158 0.0
0.6830867370872363 0.630350317562806 0.0
1.040416897214502 0.7929392348941093 0.0
0.4604428393605979 0.7321209818568342 0.0
0.8729552856459739 0.7015083313474691 0.0
1.017010765275644 0.7166925631396708 0.0
0.6458785458483771 0.6946878992565794 0.0
0.7733575582969163 0.8941098392103913 0.0
0.4457537579383052 0.5273353624588528 0.0
0.163830623786951 0.3903175742448083 0.0
0.6095823984734953 0.8256600013628639 0.0
0.2618074352614998 0.5435604438425528 0.0
0.6287880420949764 0.5875838132975476 0.0
0.3100402147222924 0.4835410260423071 0.0
0.5422177893302824 0.5343158927797464 0.0
0.9964262112680041 0.8213447667248638 0.0
0.4971609598823845 0.6906859160718212 0.0
0.5740517260168769 0.633982031239429 0.0
0.7423299505107201 0.7218768583704394 0.0
0.767147744476665 0.819658485932403 0.0
0.9427329070375209 0.7774595780066723 0.0
0.8375285793481674 0.8869398470561132 0.0
0.2879426409425497 0.5872676364411625 0.0
0.6797562629663748 0.8647676397847667 0.0
1.171674168522591 0.6949964056806914 0.0
0.5261010885606964 0.6055079299963303 0.0
0.7081534744446967 0.8078672678314597 0.0
0.9681672688626206 0.705385299758921 0.0
0.7364069054947873 0.6432919177737106 0.0
0.363826821075015 0.5678764295233764 0.0
0.826170216989844 0.6605791783255148 0.0
0.1284439337099834 0.3602715082199688 0.0
0.518140828090112 0.783905985497134 0.0
0.8452908336054504 0.8167586152211004 0.0
0.2015204468558833 0.492088055688788 0.0
0.4005883523205732 0.7121294304856254 0.0
0.3551392316798573 0.4864133323669936 0.0
0.2501727034998737 0.4443035857235296 0.0
0.857938396055507 0.7390317828783199 0.0
0.9245301815433076 0.8668102132501951 0.0
0.5702050292970205 0.7323438487067678 0.0
1.111607633075016 0.759318252473435 0.0
0.6317193755596126 0.7853891653733797 0.0
0.7921381265818805 0.7497379312370454 0.0
1.088942426366261 0.7015435214091311 0.0
0.5818207607488639 0.5352340257544296 0.0
0.4203532416309484 0.6369649631143086 0.0
0.4854818714173937 0.5131439318707094 0.0
0.4475429831528036 0.5690430472086269 0.0
0.8968753306595262 0.8225547516037004 0.0
0.6339557898063448 0.8543470494763272 0.0
0.3416564411796998 0.6516449771136894 0.0
1.082970576264455 0.7856036465430698 0.0
0.2255204648032354 0.5229464838393291 0.0
0.7335043541589261 0.9012744999286941 0.0
0.9097052989734319 0.6921177492721042 0.0
0.5363428275528405 0.6992389299864537 0.0
0.9657777897300287 0.8588269742066746 0.0
1.025947476617909 0.7556651119714124 0.0
0.1090829970454354 0.3226173037985549 0.0
0.4836644525169279 0.7663103281018557 0.0
0.6910856326166581 0.777867529208468 0.0
0.6694391877434097 0.5946719355048008 0.0
0.2954883530575775 0.4501042133334518 0.0
0.6746032498128595 0.6643957640016517 0.0
1.054636636429828 0.6974583960183274 0.0
0.8939255235163368 0.7470597914537064 0.0
0.3749741568555516 0.6190655430398917 0.0
1.204101441114554 0.6801433534918062 0.0
0.6130053345415899 0.6785345531932346 0.0
0.7679719108452487 0.8562682874000032 0.0
0.9710820219997449 0.8008372590855476 0.0
0.1608022352294362 0.4242591696906621 0.0
0.2865399820604418 0.5141369963640697 0.0
0.1962258775846918 0.4008383427744516 0.0
0.6210920174972845 0.5516143721732873 0.0
0.4843009180093644 0.6583977883024127 0.0
0.5695029195102991 0.8267073580550881 0.0
0.9562891163300477 0.7436031251145003 0.0
0.4174190173896447 0.5044019081507806 0.0
0.410860431802698 0.5535781448116232 0.0
0.8709320861791604 0.9002602580953145 0.0
0.427354757192076 0.7399041791280969 0.0
0.7107884943357746 0.7172753954970394 0.0
1.030382288537246 0.8267335242583146 0.0
0.7737440530215844 0.7115751739064536 0.0
0.8042035044852396 0.9123190309183211 0.0
0.0480920891272324 0.2181807374272496 0.0
0.3695079235280397 0.6886893012630373 0.0
0.773516204411121 0.7830673827025234 0.0
0.302776671534508 0.6210168062901616 0.0
0.7150573728414059 0.6149413270404035 0.0
0.5863276441271683 0.769748656022605 0.0
1.143752049005473 0.6780480059671409 0.0
0.6477132714923303 0.7318578097016951 0.0
0.8380052680878572 0.8531154611905379 0.0
0.5966224054445893 0.6051703156405629 0.0
0.3207240819522855 0.5772784374275386 0.0
0.3520131451607586 0.5263918604440553 0.0
0.8573528491808811 0.6709738722470224 0.0
0.1797236573643203 0.460867988842514 0.0
0.5540828191547277 0.6661566975721369 0.0
1.158039843450239 0.7357536542887966 0.0
0.08638006908591334 0.286237566592474 0.0
0.790861820497242 0.6466611559014377 0.0
0.5362079962218838 0.8121454698907893 0.0
0.9405172130232713 0.6862060282668497 0.0
0.6039359324506977 0.711463595189489 0.0
0.4440093493753478 0.6096873538428137 0.0
0.5500746279087338 0.7620941994763282 0.0
0.2578504496023611 0.5739900063885278 0.0
0.502526452350101 0.6209820553182169 0.0
0.6799833858912959 0.7033681517905728 0.0
0.7183487148906835 0.7518430858176317 0.0
0.8006701240044786 0.8118713608014352 0.0
0.1304684854221093 0.3934039266496895 0.0
1.00789495394612 0.7937868725857601 0.0
0.696960396255943 0.893370944718147 0.0
0.8258315165019564 0.7538365084989149 0.0
0.8462950259502577 0.775614153529746 0.0
0.4082018839227037 0.6749460331934272 0.0
0.7025889307788081 0.8378536687159448 0.0
0.4666676520109517 0.6984557076050861 0.0
[...]
POINT_DATA 531

VECTORS Velocity float
0.0000000000000000 1.0000000000000000 0.0
0.0000000000000000 1.0000000000000000 0.0
2.6381897079653691 -0.9593309880999561 0.0
1.7810451252580353 1.0216572415544616 0.0
0.0000000000000000 1.0000000000000000 0.0
0.0000000000000000 1.0000000000000000 0.0
0.0000000000000000 1.0000000000000000 0.0
0.0000000000000000 1.0000000000000000 0.0
0.0000000000000000 1.0000000000000000 0.0
0.0000000000000000 1.0000000000000000 0.0
0.0000000000000000 1.0000000000000000 0.0
0.0000000000000000 1.0000000000000000 0.0
0.0000000000000000 1.0000000000000000 0.0
0.0000000000000000 1.0000000000000000 0.0
0.0000000000000000 1.0000000000000000 0.0
0.0000000000000000 1.0000000000000000 0.0
0.0000000000000000 1.0000000000000000 0.0
0.0000000000000000 1.0000000000000000 0.0
0.0000000000000000 1.0000000000000000 0.0
0.0000000000000000 1.0000000000000000 0.0
0.0000000000000000 0.0000000000000000 0.0
0.0000000000000000 0.0000000000000000 0.0
0.0000000000000000 0.0000000000000000 0.0
0.0000000000000000 0.0000000000000000 0.0
0.0000000000000000 0.0000000000000000 0.0
0.0000000000000000 0.0000000000000000 0.0
0.0000000000000000 0.0000000000000000 0.0
0.0000000000000000 0.0000000000000000 0.0
0.0000000000000000 0.0000000000000000 0.0
0.0000000000000000 0.0000000000000000 0.0
0.0000000000000000 0.0000000000000000 0.0
0.0000000000000000 0.0000000000000000 0.0
0.0000000000000000 0.0000000000000000 0.0
0.0000000000000000 0.0000000000000000 0.0
0.0000000000000000 0.0000000000000000 0.0
0.0000000000000000 0.0000000000000000 0.0
0.0000000000000000 0.0000000000000000 0.0
0.0000000000000000 0.0000000000000000 0.0
0.0000000000000000 0.0000000000000000 0.0
2.6783005760446619 -1.7943030677985428 0.0
3.6707285089291255 -2.3036571380781581 0.0
3.7614830637539063 -2.2272830474766354 0.0
3.7622890644599081 -1.9753047094615581 0.0
3.8534466791122961 -1.7614675076103048 0.0
3.9567748753199949 -1.4615426372676166 0.0
4.0168318717905969 -1.3080224608251152 0.0
4.1422567689637413 -1.0831438532659683 0.0
4.1253278380118319 -0.7882006037125288 0.0
4.1079799927889349 -0.5235373756370710 0.0
3.9749880337913304 -0.2299569827333373 0.0
3.7550049982366502 0.0668788415713321 0.0
3.5669165076786937 0.2978686861024904 0.0
3.2081555187794102 0.5446423727670436 0.0
2.5896846413813064 1.0891269598950937 0.0
1.7542302408964801 0.9424568780835649 0.0
0.0000000000000000 0.0000000000000000 0.0
0.0000000000000000 0.0000000000000000 0.0
0.0000000000000000 0.0000000000000000 0.0
0.0000000000000000 0.0000000000000000 0.0
0.0000000000000000 0.0000000000000000 0.0
0.0000000000000000 0.0000000000000000 0.0
0.0000000000000000 0.0000000000000000 0.0
0.0000000000000000 0.0000000000000000 0.0
0.0000000000000000 0.0000000000000000 0.0
0.0000000000000000 0.0000000000000000 0.0
0.0000000000000000 0.0000000000000000 0.0
0.0000000000000000 0.0000000000000000 0.0
0.0000000000000000 0.0000000000000000 0.0
0.0000000000000000 0.0000000000000000 0.0
0.0000000000000000 0.0000000000000000 0.0
0.0000000000000000 0.0000000000000000 0.0
0.0000000000000000 0.0000000000000000 0.0
0.0000000000000000 0.0000000000000000 0.0
0.0000000000000000 0.0000000000000000 0.0
0.0000000000000000 0.0000000000000000 0.0
0.0000000000000000 0.0000000000000000 0.0
0.0000000000000000 0.0000000000000000 0.0
0.0000000000000000 0.0000000000000000 0.0
0.0000000000000000 0.0000000000000000 0.0
0.0000000000000000 0.0000000000000000 0.0
0.0000000000000000 0.0000000000000000 0.0
0.0000000000000000 0.0000000000000000 0.0
0.0000000000000000 0.0000000000000000 0.0
3.9862973682471110 2.6031838078018579 0.0
4.2904986449750639 2.1367247150796995 0.0
3.9155846349318604 1.1745089068061625 0.0
3.8367005565442680 2.2077046866287526 0.0
3.8176967398302368 2.9211250837918796 0.0
3.4497913996867875 0.0857969040691005 0.0
3.9080054345441138 3.4779103419912025 0.0
3.7660730756724408 2.4440042374695157 0.0
3.7441527903121332 1.9400518727856995 0.0
3.5724710286664831 1.7312178364527624 0.0
2.8477348239929636 1.8089010722436349 0.0
3.3648780526196727 1.3709299756137474 0.0
3.2286297852176040 1.6707661196153152 0.0
3.1622028533957294 2.3503051238549180 0.0
3.2663361546076013 2.5080513594663061 0.0
3.0310083927727463 -0.4919335687966945 0.0
3.6098510652345563 3.8488832732090317 0.0
2.5020078678743589 2.1157049587615648 0.0
2.9194184772183003 1.4044359710086625 0.0
3.9151112794784066 0.5433698232555886 0.0
2.3560616354446102 0.3697402218174578 0.0
3.6658616342397621 1.2229483863034807 0.0
2.7994600721882699 2.6332319806287354 0.0
3.4916996702918492 4.5879979013655623 0.0
3.6301193819575097 2.6434379857003778 0.0
2.2692609361075120 1.3346199880013081 0.0
4.3319493221189269 2.3408961131569654 0.0
4.0114214717299399 2.5834908463522215 0.0
2.8558415601962182 -0.7916220515202446 0.0
4.1169532298115747 1.7940204747091719 0.0
2.5177847962813291 2.0369833652304772 0.0
2.5447876973115147 1.0653025010853063 0.0
3.9251354529474041 2.7310365993056682 0.0
2.7051064629526573 1.3438227175570154 0.0
3.8228904441445222 -0.4119203180376005 0.0
1.9805434956494328 1.4430302664799668 0.0
2.2538666115623447 0.6161799351022478 0.0
2.1067621151561666 0.0458448418782403 0.0
4.1616841029469080 2.4720018243032444 0.0
2.6129874121014414 1.7083643907466661 0.0
2.8002222228497251 2.4543640366492134 0.0
2.9347278295215151 4.7381396835979377 0.0
2.3742657269948038 1.2671106092663040 0.0
2.5248036748178602 2.8800085312461294 0.0
2.1686462763732504 1.6425422834068573 0.0
3.2860023552301350 3.5020710348451134 0.0
1.8147877811930249 1.7689382889411094 0.0
3.9726005545316276 -0.0759660187246498 0.0
3.5043564387681974 2.2759998589365926 0.0
3.8696144934506549 2.5697789787774341 0.0
3.9921409514740356 1.9864226760506720 0.0
4.0482194156614018 2.0888507499803737 0.0
3.6421064167265387 0.4599846918336992 0.0
3.1000821212325720 1.5855432883801939 0.0
1.6453617389062072 1.6775462484654342 0.0
2.2600732978834173 1.0737384459404760 0.0
2.8666686050023991 -1.0464865753414925 0.0
3.7185367496110926 2.5590669605728400 0.0
3.8886498151495159 1.9820949210940322 0.0
1.4368466248827159 0.0777345938704394 0.0
2.0097779999646526 1.0879365591291017 0.0
3.7344725005241379 3.1694400980244368 0.0
1.1191393017379911 0.4440722198132757 0.0
1.8313773244742548 3.2599891329295327 0.0
1.4847509173902098 0.8608403052533831 0.0
3.9820920379708498 1.5638362643658283 0.0
1.8405529748673655 2.2639428924491463 0.0
1.0966173085760378 0.7299895318174101 0.0
2.1223771945467624 2.3897846298820462 0.0
2.7846763563205230 3.3820795117615359 0.0
3.3512840363799228 1.0931842922868085 0.0
3.7935292226376625 0.6578841888241280 0.0
3.5846389186259162 2.2359265698834494 0.0
3.7621194995563312 -1.1197005864439111 0.0
3.3035631145219164 1.7787187256644137 0.0
4.0292005466853036 1.7807719101567121 0.0
1.6469528312084318 -0.3319705464792578 0.0
1.4087994938833912 1.5089881918687107 0.0
3.4463587220600149 2.5962121727247185 0.0
1.2841710083036115 1.8013960881081112 0.0
3.6001158478915425 2.7457300151518758 0.0
3.9197654877053609 1.0794711589498218 0.0
1.4760280462964517 0.7818050913751423 0.0
1.3706209591374694 1.3082192483999096 0.0
3.9127795750265393 -0.9134174958093036 0.0
1.8247819580407065 1.8424923611812696 0.0
1.5170771690726790 0.8472006703544551 0.0
1.2692634369815960 0.1586297053495972 0.0
3.7141318895952540 2.3653291644185739 0.0
3.9829999215880649 0.1668842428553832 0.0
3.1585185050293201 -0.2975750744721345 0.0
1.5934207177055493 3.1018868325756364 0.0
1.1972055717405337 1.0159256526303997 0.0
4.1108033334654150 2.1441560653045761 0.0
1.3125567549128669 0.7938292216620351 0.0
1.5296746912678469 2.7802661895037799 0.0
3.6633518862952279 2.0899706876562920 0.0
1.3367423818289847 -0.2660878691617268 0.0
3.3475970520684961 0.7996176401369318 0.0
3.1588924124753044 2.4988345923917925 0.0
2.6859980851580092 -1.4073834437466239 0.0
4.0804553126590015 2.6072928380708489 0.0
3.4368624328769597 1.9519614335408342 0.0
3.8166790436313027 0.2268786853181293 0.0
2.0000948803577292 3.0560094872975450 0.0
3.6266450361351930 3.6735498749405089 0.0
2.4430620757300159 4.0337968836538192 0.0
0.8446540992858725 0.8017296834981849 0.0
3.7595421483525731 2.5532180628953278 0.0
1.0729674048982263 0.5671566099199112 0.0
2.8788322413360543 0.2569001445800813 0.0
2.1196483232415311 2.2096915099024801 0.0
3.5941875808151229 2.8404571668284744 0.0
3.0987371452825370 1.0483344661344449 0.0
0.8316003827266393 0.5983062428435978 0.0
4.1486249692971260 2.0442023024163452 0.0
4.0956631835534978 -0.4355994781744612 0.0
3.5598682343753527 1.6276465336560639 0.0
2.2850149930870640 1.5796884392313180 0.0
0.7641786058539871 3.4574472035420611 0.0
0.9890256896105452 0.8507133342788570 0.0
4.2408059513364584 2.0073605031844375 0.0
1.3052483737905518 1.0413387712846098 0.0
1.2187287005449783 0.4737988409780493 0.0
3.1389006128126025 1.8578933804315025 0.0
1.4089868923401048 -0.2948096544642942 0.0
4.2585401415874955 2.4452906216614352 0.0
3.7246080276394200 1.6717067419032190 0.0
3.1578546425508525 2.2127747867294483 0.0
2.8940371151813524 3.0010595285469002 0.0
3.9298870046068570 3.2633086691749549 0.0
0.9626888788203752 0.3010715871127638 0.0
1.7261981279874619 2.4100293983197214 0.0
4.0525131654221740 2.5494148774060430 0.0
3.6904215070716915 -1.3984080318887504 0.0
1.2131527661486214 3.3076046244214399 0.0
1.1638296092979272 0.4754285569217217 0.0
0.9559709097472312 0.3814917250266282 0.0
0.9098852477675966 0.0545980940922336 0.0
4.1112651485279690 2.4658019066671550 0.0
3.8317794787943669 2.8495551387815787 0.0
2.7639848254390227 1.6287106035378405 0.0
1.0306821843545242 1.4844365494571667 0.0
3.9510464820803111 2.6519472228056582 0.0
4.1507615017974508 2.3529532683880410 0.0
4.2976946695911202 2.2005049414775106 0.0
4.0792332264716960 1.9203837533511114 0.0
1.6335595195957573 2.3202384422177151 0.0
3.8031301125831294 -0.1500318670345081 0.0
1.2249642429358325 0.6156877500164607 0.0
3.8649336256677600 1.5311550622555770 0.0
3.9478124349614299 1.4115333939523453 0.0
2.5609634859572741 1.7580750474161506 0.0
3.0863817764241932 1.5142871869369090 0.0
3.0756331609766274 2.0896824509719010 0.0
3.0571958700970043 1.9359433175155170 0.0
3.3520285197038060 1.7602299283049441 0.0
4.0033807971564634 2.2623871708154999 0.0
1.0591714062263962 0.1474137059848802 0.0
2.8648548967396970 2.1261143633145694 0.0
2.4259619643704515 0.8511033385448309 0.0
2.7430098045154434 1.9950797702316709 0.0
2.4416006757248412 -0.0367510805396705 0.0
4.1301909531575820 -0.7417464578276000 0.0
0.9397320109829354 0.9565558183117233 0.0
2.3129986753546148 -1.0760902130720138 0.0
4.0628485409915180 2.5907093994973844 0.0
2.8359529194831499 1.4266715692889234 0.0
3.1193813714746210 1.8491591464982371 0.0
3.4917965450636221 3.9778914128685710 0.0
0.5235235905534932 1.6423926959779560 0.0
3.7453896724260627 2.7504820786324422 0.0
1.5490499720397992 1.8408147755268565 0.0
2.9183422717094012 -0.6952377612131501 0.0
3.7860108557396570 0.8292832068177153 0.0
3.6160793167169891 2.4705142136682756 0.0
0.6345593089827690 0.5023168045221932 0.0
1.2011129579712503 2.2396028137235264 0.0
3.1055544614453949 2.7519784631877275 0.0
1.7180208311940943 2.9227414344695064 0.0
1.0179424857673245 1.8911825906115518 0.0
0.8150809960799984 1.5833821845129421 0.0
1.6637169458003414 3.0813955267618471 0.0
1.4423381971135418 1.1769093606216525 0.0
2.1903172669210087 -1.4148873775435091 0.0
2.1192290784919834 1.5767581451353889 0.0
0.6679760744516363 0.2939314483214609 0.0
0.7632103852678729 0.5780399382737261 0.0
3.9199417049296259 3.4624376896894247 0.0
1.2651646882658794 -0.0775528735208493 0.0
3.3628333865458240 0.8368642649335101 0.0
4.0634957173642601 -0.1552057863384899 0.0
3.8878385287746240 2.3980498558054339 0.0
1.1250736553959861 3.3292141598832732 0.0
2.5333249741108319 0.6930282825898458 0.0
0.5975740994657351 0.3597440787738014 0.0
3.4694881722552608 -0.4707019018057021 0.0
3.6851997612405034 2.6489031122696205 0.0
0.7541116782255295 -0.0144272281022838 0.0
2.5963263773098992 -0.2610875507249454 0.0
2.6617668810567734 1.4293848037447274 0.0
3.6936783450823958 -1.7336769637498834 0.0
0.8056645965494467 0.1061900382155675 0.0
2.4346987959412050 1.5410470155743896 0.0
2.8539220993036238 2.4178966052840623 0.0
2.2169557831998659 1.9590441955825535 0.0
3.9091709576729126 2.5332828094506530 0.0
3.7773204919387684 1.9288206963692902 0.0
2.5071678897074188 1.1007276517143041 0.0
3.7091545654243463 3.7865203840221815 0.0
4.1849653021175071 2.1110503033278434 0.0
0.9364359512396767 0.5962336201382852 0.0
3.1438614824670230 3.2363294345971623 0.0
2.7194423824860796 1.6650251248805619 0.0
4.2195999751140381 2.1959659306776018 0.0
4.1394461786262182 2.0145487488710363 0.0
3.0966654220402914 2.1901175823897434 0.0
3.7344015353358868 2.5790606014604736 0.0
1.2610183469206473 -0.7695783013996702 0.0
3.3091618745103295 0.6482599238933486 0.0
3.9764466216883378 0.1524440282581240 0.0
1.6698231863996638 4.0683860371054985 0.0
2.2524752593133206 1.8667514614169223 0.0
0.7072256334705972 0.6016737735704025 0.0
3.9964121379407529 2.5959579370984360 0.0
4.2860732297349724 2.1429516544770206 0.0
3.9156044256758684 1.1861459516654123 0.0
3.8189666636347797 2.1972044397251689 0.0
3.8222696790417032 2.9121264911317413 0.0
3.4501837160229054 0.0910745875899034 0.0
3.9096347285704045 3.4746432760897630 0.0
3.7877403998590236 2.4557600753403381 0.0
3.7245712489088243 1.9477701129824283 0.0
3.5962671309360070 1.7458453667415377 0.0
2.8268462873438107 1.7912901249499209 0.0
3.3829428862316004 1.3838578707590288 0.0
3.2026600487368437 1.6605875602715532 0.0
3.1526427720709878 2.3325203156196936 0.0
3.2846618883557803 2.5045928943190239 0.0
3.0310660892261514 -0.4917631492185657 0.0
3.6097858214137735 3.8490755252838089 0.0
2.5240413281515894 2.1226224741508504 0.0
2.8960874859093568 1.3998058096661550 0.0
3.9099524310127736 0.5504541983107492 0.0
2.3635256237155948 0.3753306096743048 0.0
3.6531663860714660 1.2291108296450981 0.0
2.7985117126818762 2.6271616879096151 0.0
3.4915981267128200 4.5880978790335112 0.0
3.6354969581105427 2.6411354744717856 0.0
2.2455481227206087 1.3207745467890029 0.0
4.3317274543776394 2.3434603551594475 0.0
4.0091545239167665 2.5768229548442627 0.0
2.8557835141381025 -0.7917462194845191 0.0
4.1146838103015586 1.8073365222819782 0.0
2.5121100821280309 2.0263515636818314 0.0
2.5677222451735076 1.0763265153054724 0.0
3.9328470209512818 2.7189452057514987 0.0
2.7313781976436071 1.3575123486370417 0.0
3.8227532247744254 -0.4106157014369426 0.0
1.9641661796011216 1.4287914277802871 0.0
2.2682721131334911 0.6221988960188346 0.0
2.1076903749813107 0.0474397358092404 0.0
4.1727386391001966 2.4790672653246735 0.0
2.5952849215447267 1.7077400587155955 0.0
2.8117961247255745 2.4534207593746022 0.0
2.9347131698472095 4.7381542216202490 0.0
2.3505514271990289 1.2547919252202437 0.0
2.5252769011614467 2.8798793359811543 0.0
2.1908025417998882 1.6573288803550781 0.0
3.2862583361631357 3.5015131814303264 0.0
1.8326780106703473 1.7712710523712001 0.0
3.9703361825525265 -0.0727440552086143 0.0
3.4908428070829611 2.2579869308257599 0.0
3.8878192261999898 2.5717331194046240 0.0
4.0087655520387102 1.9977730779649130 0.0
4.0293079358469317 2.0931620289294464 0.0
3.6414294700350585 0.4676106780867120 0.0
3.0882672782069669 1.5885408587799532 0.0
1.6452845076689147 1.6762906115586400 0.0
2.2373977699486693 1.0653995085199557 0.0
2.8666416188869208 -1.0465730905016404 0.0
3.7362338372010551 2.5573835008603925 0.0
3.8658587954177817 1.9764657692743044 0.0
1.4406914862653899 0.0808940279959071 0.0
2.0310636286947950 1.0990138594965932 0.0
3.7372841139665089 3.1635612790899796 0.0
1.1320349642733076 0.4495616175430350 0.0
1.8313752014073601 3.2599926764273968 0.0
1.4678703388976622 0.8498748220178429 0.0
3.9714078015324130 1.5747806206148247 0.0
1.8406223328049092 2.2642306284467355 0.0
1.0889884010167077 0.7228336301647684 0.0
2.1244715608039075 2.3888566519679406 0.0
2.7843322257820358 3.3820775570940969 0.0
3.3623976894134482 1.1048526190205235 0.0
3.7868522544992715 0.6622523216822899 0.0
3.5673806709594782 2.2209685439031865 0.0
3.7622669431645384 -1.1199124435567602 0.0
3.2781673707429184 1.7664995758802662 0.0
4.0389062568023437 1.7935031830018779 0.0
1.6466914090209182 -0.3320454100148388 0.0
1.4237212291340267 1.5149507063395988 0.0
3.4442236650299072 2.5830845642751092 0.0
1.2943916703113949 1.8018851405220990 0.0
3.6117838328846110 2.7392846086919653 0.0
3.9119599000843626 1.0894880905499247 0.0
1.4581359928187851 0.7730726703369412 0.0
1.3676086292884488 1.3029255286404935 0.0
3.9130330097019921 -0.9133483612363373 0.0
1.8250068892446589 1.8427866936310719 0.0
1.5040893688106938 0.8449961175920402 0.0
1.2767887562952984 0.1621758373477810 0.0
3.7011418778798273 2.3509537360053412 0.0
3.9795539689862909 0.1695034288058566 0.0
3.1589585951027974 -0.2950120528530766 0.0
1.5934211576643191 3.1018861268580080 0.0
1.1829107243062018 1.0031976610682731 0.0
4.0940320236115184 2.1404052357708685 0.0
1.3302872344037542 0.8041268403981836 0.0
1.5293399123811109 2.7801367967078705 0.0
3.6877341769902405 2.1037766132934528 0.0
1.3366389816802178 -0.2657418170643600 0.0
3.3528851955540526 0.8097575233117642 0.0
3.1581635753431940 2.4884571717247157 0.0
2.6859970893393728 -1.4073896027132797 0.0
4.0909549107868894 2.6115824893538329 0.0
3.4139760238943491 1.9523514934051849 0.0
3.8145575932738143 0.2321503833374059 0.0
2.0000756752505033 3.0560687167504517 0.0
3.6271273901853127 3.6727457992607948 0.0
2.4429997904660405 4.0338183850933538 0.0
0.8562673557280002 0.8109380943788077 0.0
3.7568550753043319 2.5373157114886222 0.0
1.0579787988484552 0.5594267284124348 0.0
2.8823987112576255 0.2626913553651588 0.0
2.1260989663837351 2.2092246807520013 0.0
3.6026786713762782 2.8353890902953922 0.0
3.0907827934371754 1.0514838578241144 0.0
0.8230069416157557 0.5909256895707063 0.0
4.1636203904703208 2.0549153659352908 0.0
4.0949479137633773 -0.4345407397172145 0.0
3.5802115446522911 1.6408992104708973 0.0
2.2756982284806999 1.5801885543133103 0.0
0.7641786058539872 3.4574472035420620 0.0
0.9838948652560094 0.8443891259681636 0.0
4.2352051941518525 2.0168056552657201 0.0
1.3045068293880548 1.0392967806203919 0.0
1.2362248489819270 0.4815372728365463 0.0
3.1136359479330427 1.8432128830446912 0.0
1.4088760308702131 -0.2948335407914934 0.0
4.2565254150684106 2.4457965941264157 0.0
3.7074452840352694 1.6780028575012529 0.0
3.1823349488240456 2.2236414751477382 0.0
2.8937569612868241 2.9968094544470136 0.0
3.9333909129677127 3.2607534686424247 0.0
0.9729538462331445 0.3048382623607305 0.0
1.7262063444246940 2.4101769510233861 0.0
4.0565397761907604 2.5431854812963417 0.0
3.6904675705845751 -1.3985552768515070 0.0
1.2131529746706746 3.3076046303895574 0.0
1.1785121459859860 0.4819855178230902 0.0
0.9412888075864162 0.3750051493252511 0.0
0.9151965944118476 0.0563721138920348 0.0
4.1075990725594158 2.4603083507716796 0.0
3.8385233482262970 2.8372695645502399 0.0
2.7403787937356578 1.6128716664896514 0.0
1.0308711155881629 1.4840790205060841 0.0
3.9613519971320832 2.6419078039079751 0.0
4.1646341794513546 2.3625003922938226 0.0
4.2997411201164466 2.2057544587436801 0.0
4.0648916475679355 1.9301089471579120 0.0
1.6335533569452618 2.3202492858253012 0.0
3.8024477443306890 -0.1464371982625500 0.0
1.2119649386805280 0.6107936504012615 0.0
3.8731168537340528 1.5445573229605571 0.0
3.9482485562349474 1.4260769887261997 0.0
2.5526142683759070 1.7459740167433915 0.0
3.0610477521461386 1.5085054783222909 0.0
3.0616055929109960 2.0721032272636530 0.0
3.0839520729585015 1.9514890147361514 0.0
3.3765089473704228 1.7733142545195848 0.0
3.9847895588947568 2.2561403193226344 0.0
1.0609543188781958 0.1484886379576211 0.0
2.8869577505810033 2.1267140588077051 0.0
2.4437271307946142 0.8609859877823284 0.0
2.7244881438726125 1.9781536966063904 0.0
2.4439604034410656 -0.0329672421040840 0.0
4.1302186887574193 -0.7414986854126804 0.0
0.9399592227606297 0.9567261602038314 0.0
2.3129997881022857 -1.0760877663366168 0.0