# vtk DataFile Version 3.0
LucasCarvalhoTCC Results
ASCII

DATASET POLYDATA
FIELD FieldData 1
TIME 1 1 double
3.0

POINTS 531 float
0.02430399999999999 0.16425 0.0
0.5913384 0.481878 0.0
1.30475 0.591832 0.0
0.774126 0.951272 0.0
0.04779564148251592 0.1966194329439859 0.0
0.0726092153537953 0.2279866320496896 0.0
0.09876577335895967 0.2582426022760065 0.0
0.1262817198684718 0.2872673048853742 0.0
0.1551671626852806 0.3149288071400502 0.0
0.1854238368919928 0.3410826624766006 0.0
0.2170424591499632 0.3655716640299072 0.0
0.2499995164635996 0.3882263409476824 0.0
0.2842534387828506 0.4088665906889567 0.0
0.3197403359862048 0.4273050841371062 0.0
0.3563695945475563 0.4433531534921038 0.0
0.3940201673622058 0.4568300511916809 0.0
0.4325386107291805 0.4675762214989666 0.0
0.4717406913237268 0.4754709112408955 0.0
0.5114182513144845 0.480453442081874 0.0
0.5513531678859215 0.4825464217651069 0.0
0.6182637923774223 0.5096055604109244 0.0
0.647389101376845 0.5350126187545199 0.0
0.6784752958296183 0.5579802184492302 0.0
0.7112421079139344 0.5784810076698811 0.0
0.7454110434104482 0.5965507527581431 0.0
0.7807301979183381 0.6122562812860965 0.0
0.8169827939052532 0.6256694297140926 0.0
0.853985522124928 0.6368498290413532 0.0
0.8915818964261243 0.6458353363890481 0.0
0.9296339776508085 0.6526379336565091 0.0
0.9680139759519513 0.6572432424840469 0.0
1.006596418266983 0.659612648128084 0.0
1.045251165872634 0.6596877658251245 0.0
1.083837680945672 0.657397570658483 0.0
1.122201320191055 0.6526688455666412 0.0
1.160173053543044 0.6454405726452737 0.0
1.197574286953346 0.6356824063786186 0.0
1.23422961949795 0.6234159704281613 0.0
1.26998758503999 0.6087366500005643 0.0
1.285086682927543 0.6256533177085738 0.0
1.263669745906668 0.6583917156018083 0.0
1.240480125919214 0.6898988493917133 0.0
1.215532715641304 0.7200329197235763 0.0
1.188869833862339 0.7486599839005789 0.0
1.160556835593143 0.7756559317113654 0.0
1.130680194163798 0.8009104211039757 0.0
1.099347083827048 0.8243335727704395 0.0
1.066684425336412 0.8458643604021228 0.0
1.03283497048792 0.8654772531176074 0.0
0.9979492572630678 0.8831824104874066 0.0
0.9621749986495024 0.8990166556695112 0.0
0.9256475378616493 0.9130272060048579 0.0
0.8884846540507749 0.9252538945090274 0.0
0.8507866567183312 0.935715378288671 0.0
0.8126405010322847 0.9444016349017643 0.0
0.7365055179612304 0.9396161853607135 0.0
0.699310855231089 0.9266666891603924 0.0
0.6626179171945521 0.9123577070090924 0.0
0.6264901449910028 0.8966765244755546 0.0
0.5909789825447118 0.8796450886595113 0.0
0.556124897941028 0.8613059841617771 0.0
0.5219601957009091 0.8417124664434518 0.0
0.4885110616878257 0.8209207172498462 0.0
0.4558007060429968 0.7989848675704875 0.0
0.4238520247653796 0.775953675763176 0.0
0.3926900138417566 0.7518687036338616 0.0
0.3623437622133722 0.7267636709390595 0.0
0.3328479550295906 0.7006647540504483 0.0
0.3042438201183181 0.6735915983461908 0.0
0.2765795358619001 0.6455588748284606 0.0
0.2499101143933102 0.6165781952942546 0.0
0.2242967982692083 0.5866601984136335 0.0
0.1998060807431611 0.5558166834807132 0.0
0.1765083808984156 0.5240625786010467 0.0
0.154476512720734 0.491417660368959 0.0
0.133784033184808 0.457907916333494 0.0
0.114503564227142 0.4235664945146766 0.0
0.09670517293008124 0.3884342245925089 0.0
0.0804548910754031 0.3525597611689231 0.0
0.06581337946329963 0.3159993090744527 0.0
0.05283482490365372 0.2788161107032479 0.0
0.0415660226296666 0.2410796291505872 0.0
0.03204569406625649 0.2028646095712164 0.0
0.5272009874003867 0.6419624505772817 0.0
0.7421848286576707 0.7716726266421574 0.0
0.8789503364783713 0.7829234141383637 0.0
0.6149390992905563 0.7449438030688011 0.0
0.4064556042659638 0.5942834991165423 0.0
0.9875021850865396 0.7666507358101158 0.0
0.3188065960661005 0.539594034984892 0.0
0.61365100263957 0.6399487878797632 0.0
0.8049090660915541 0.8464379870891131 0.0
0.7099820328572021 0.6828840522539854 0.0
0.5239467234991928 0.7406922291088611 0.0
0.8154056325591208 0.7211774015928547 0.0
0.6676178829014909 0.8152713180209475 0.0
0.4416080359619968 0.674360953773491 0.0
0.489443615375965 0.5654986742123573 0.0
1.076665773779852 0.7387182918829318 0.0
0.250390543112057 0.4877450112830265 0.0
0.5736819937919005 0.5790366884881447 0.0
0.7263706755366466 0.8615301097563091 0.0
0.940143307772686 0.8233944909985552 0.0
0.927065543677544 0.7236459161626674 0.0
0.8744389806957806 0.8609114380468947 0.0
0.336888362650554 0.6081958070931937 0.0
0.2030757334857187 0.4383942902513459 0.0
0.3861483329720647 0.5255533415902591 0.0
0.5621001921466506 0.7923778419149285 0.0
0.6822897332295245 0.7428043323059399 0.0
0.5764061681675353 0.6881266532454204 0.0
1.129195449682892 0.7163224153578123 0.0
0.8157794419559141 0.7831214907157077 0.0
0.3806644703311284 0.6554275822782399 0.0
0.7695737871052837 0.669593045341503 0.0
0.4699375460410929 0.6217118815516158 0.0
0.6830867370872363 0.630350317562806 0.0
1.040416897214502 0.7929392348941093 0.0
0.4604428393605979 0.7321209818568342 0.0
0.8729552856459739 0.7015083313474691 0.0
1.017010765275644 0.7166925631396708 0.0
0.6458785458483771 0.6946878992565794 0.0
0.7733575582969163 0.8941098392103913 0.0
0.4457537579383052 0.5273353624588528 0.0
0.163830623786951 0.3903175742448083 0.0
0.6095823984734953 0.8256600013628639 0.0
0.2618074352614998 0.5435604438425528 0.0
0.6287880420949764 0.5875838132975476 0.0
0.3100402147222924 0.4835410260423071 0.0
0.5422177893302824 0.5343158927797464 0.0
0.9964262112680041 0.8213447667248638 0.0
0.4971609598823845 0.6906859160718212 0.0
0.5740517260168769 0.633982031239429 0.0
0.7423299505107201 0.7218768583704394 0.0
0.767147744476665 0.819658485932403 0.0
0.9427329070375209 0.7774595780066723 0.0
0.8375285793481674 0.8869398470561132 0.0
0.2879426409425497 0.5872676364411625 0.0
0.6797562629663748 0.8647676397847667 0.0
1.171674168522591 0.6949964056806914 0.0
0.5261010885606964 0.6055079299963303 0.0
0.7081534744446967 0.8078672678314597 0.0
0.9681672688626206 0.705385299758921 0.0
0.7364069054947873 0.6432919177737106 0.0
0.363826821075015 0.5678764295233764 0.0
0.826170216989844 0.6605791783255148 0.0
0.1284439337099834 0.3602715082199688 0.0
0.518140828090112 0.783905985497134 0.0
0.8452908336054504 0.8167586152211004 0.0
0.2015204468558833 0.492088055688788 0.0
0.4005883523205732 0.7121294304856254 0.0
0.3551392316798573 0.4864133323669936 0.0
0.2501727034998737 0.4443035857235296 0.0
0.857938396055507 0.7390317828783199 0.0
0.9245301815433076 0.8668102132501951 0.0
0.5702050292970205 0.7323438487067678 0.0
1.111607633075016 0.759318252473435 0.0
0.6317193755596126 0.7853891653733797 0.0
0.7921381265818805 0.7497379312370454 0.0
1.088942426366261 0.7015435214091311 0.0
0.5818207607488639 0.5352340257544296 0.0
0.4203532416309484 0.6369649631143086 0.0
0.4854818714173937 0.5131439318707094 0.0
0.4475429831528036 0.5690430472086269 0.0
0.8968753306595262 0.8225547516037004 0.0
0.6339557898063448 0.8543470494763272 0.0
0.3416564411796998 0.6516449771136894 0.0
1.082970576264455 0.7856036465430698 0.0
0.2255204648032354 0.5229464838393291 0.0
0.7335043541589261 0.9012744999286941 0.0
0.9097052989734319 0.6921177492721042 0.0
0.5363428275528405 0.6992389299864537 0.0
0.9657777897300287 0.8588269742066746 0.0
1.025947476617909 0.7556651119714124 0.0
0.1090829970454354 0.3226173037985549 0.0
0.4836644525169279 0.7663103281018557 0.0
0.6910856326166581 0.777867529208468 0.0
0.6694391877434097 0.5946719355048008 0.0
0.2954883530575775 0.4501042133334518 0.0
0.6746032498128595 0.6643957640016517 0.0
1.054636636429828 0.6974583960183274 0.0
0.8939255235163368 0.7470597914537064 0.0
0.3749741568555516 0.6190655430398917 0.0
1.204101441114554 0.6801433534918062 0.0
0.6130053345415899 0.6785345531932346 0.0
0.7679719108452487 0.8562682874000032 0.0
0.9710820219997449 0.8008372590855476 0.0
0.1608022352294362 0.4242591696906621 0.0
0.2865399820604418 0.5141369963640697 0.0
0.1962258775846918 0.4008383427744516 0.0
0.6210920174972845 0.5516143721732873 0.0
0.4843009180093644 0.6583977883024127 0.0
0.5695029195102991 0.8267073580550881 0.0
0.9562891163300477 0.7436031251145003 0.0
0.4174190173896447 0.5044019081507806 0.0
0.410860431802698 0.5535781448116232 0.0
0.8709320861791604 0.9002602580953145 0.0
0.427354757192076 0.7399041791280969 0.0
0.7107884943357746 0.7172753954970394 0.0
1.030382288537246 0.8267335242583146 0.0
0.7737440530215844 0.7115751739064536 0.0
0.8042035044852396 0.9123190309183211 0.0
0.0480920891272324 0.2181807374272496 0.0
0.3695079235280397 0.6886893012630373 0.0
0.773516204411121 0.7830673827025234 0.0
0.302776671534508 0.6210168062901616 0.0
0.7150573728414059 0.6149413270404035 0.0
0.5863276441271683 0.769748656022605 0.0
1.143752049005473 0.6780480059671409 0.0
0.6477132714923303 0.7318578097016951 0.0
0.8380052680878572 0.8531154611905379 0.0
0.5966224054445893 0.6051703156405629 0.0
0.3207240819522855 0.5772784374275386 0.0
0.3520131451607586 0.5263918604440553 0.0
0.8573528491808811 0.6709738722470224 0.0
0.1797236573643203 0.460867988842514 0.0
0.5540828191547277 0.6661566975721369 0.0
1.158039843450239 0.7357536542887966 0.0
0.08638006908591334 0.286237566592474 0.0
0.790861820497242 0.6466611559014377 0.0
0.5362079962218838 0.8121454698907893 0.0
0.9405172130232713 0.6862060282668497 0.0
0.6039359324506977 0.711463595189489 0.0
0.4440093493753478 0.6096873538428137 0.0
0.5500746279087338 0.7620941994763282 0.0
0.2578504496023611 0.5739900063885278 0.0
0.502526452350101 0.6209820553182169 0.0
0.6799833858912959 0.7033681517905728 0.0
0.7183487148906835 0.7518430858176317 0.0
0.8006701240044786 0.8118713608014352 0.0
0.1304684854221093 0.3934039266496895 0.0
1.00789495394612 0.7937868725857601 0.0
0.696960396255943 0.893370944718147 0.0
0.8258315165019564 0.7538365084989149 0.0
0.8462950259502577 0.775614153529746 0.0
0.4082018839227037 0.6749460331934272 0.0
0.7025889307788081 0.8378536687159448 0.0
0.4666676520109517 0.6984557076050861 0.0
[...]
POINT_DATA 531

VECTORS Velocity float
0.0000000000000000 1.0000000000000000 0.0
0.0000000000000000 1.0000000000000000 0.0
2.6381759945651400 -0.9593303899534097 0.0
1.7948575453831577 1.0247293621845317 0.0
0.0000000000000000 1.0000000000000000 0.0
0.0000000000000000 1.0000000000000000 0.0
0.0000000000000000 1.0000000000000000 0.0
0.0000000000000000 1.0000000000000000 0.0
0.0000000000000000 1.0000000000000000 0.0
0.0000000000000000 1.0000000000000000 0.0
0.0000000000000000 1.0000000000000000 0.0
0.0000000000000000 1.0000000000000000 0.0
0.0000000000000000 1.0000000000000000 0.0
0.0000000000000000 1.0000000000000000 0.0
0.0000000000000000 1.0000000000000000 0.0
0.0000000000000000 1.0000000000000000 0.0
0.0000000000000000 1.0000000000000000 0.0
0.0000000000000000 1.0000000000000000 0.0
0.0000000000000000 1.0000000000000000 0.0
0.0000000000000000 1.0000000000000000 0.0
0.0000000000000000 0.0000000000000000 0.0
0.0000000000000000 0.0000000000000000 0.0
0.0000000000000000 0.0000000000000000 0.0
0.0000000000000000 0.0000000000000000 0.0
0.0000000000000000 0.0000000000000000 0.0
0.0000000000000000 0.0000000000000000 0.0
0.0000000000000000 0.0000000000000000 0.0
0.0000000000000000 0.0000000000000000 0.0
0.0000000000000000 0.0000000000000000 0.0
0.0000000000000000 0.0000000000000000 0.0
0.0000000000000000 0.0000000000000000 0.0
0.0000000000000000 0.0000000000000000 0.0
0.0000000000000000 0.0000000000000000 0.0
0.0000000000000000 0.0000000000000000 0.0
0.0000000000000000 0.0000000000000000 0.0
0.0000000000000000 0.0000000000000000 0.0
0.0000000000000000 0.0000000000000000 0.0
0.0000000000000000 0.0000000000000000 0.0
0.0000000000000000 0.0000000000000000 0.0
2.6783092174894367 -1.7943430399507045 0.0
3.6710597113099293 -2.3040577318349085 0.0
3.7608382247583254 -2.2280076332140482 0.0
3.7593410264202212 -1.9704378472665516 0.0
3.8313522770840627 -1.7412918723818904 0.0
3.9031224140759053 -1.4192061914807603 0.0
3.9349923593149438 -1.2362837312003292 0.0
4.0087735638075621 -0.9921237893805678 0.0
3.9282745454145815 -0.6695537881151823 0.0
3.8858530091527306 -0.4028690925240249 0.0
3.7513570594623600 -0.1231556889714656 0.0
3.5518890133878642 0.1500524852135161 0.0
3.3973354565708638 0.3657139932051029 0.0
3.0972803142628558 0.5834404200204771 0.0
2.5514510101800516 1.0820210958972323 0.0
1.7852976364302890 0.9495370069737598 0.0
0.0000000000000000 0.0000000000000000 0.0
0.0000000000000000 0.0000000000000000 0.0
0.0000000000000000 0.0000000000000000 0.0
0.0000000000000000 0.0000000000000000 0.0
0.0000000000000000 0.0000000000000000 0.0
0.0000000000000000 0.0000000000000000 0.0
0.0000000000000000 0.0000000000000000 0.0
0.0000000000000000 0.0000000000000000 0.0
0.0000000000000000 0.0000000000000000 0.0
0.0000000000000000 0.0000000000000000 0.0
0.0000000000000000 0.0000000000000000 0.0
0.0000000000000000 0.0000000000000000 0.0
0.0000000000000000 0.0000000000000000 0.0
0.0000000000000000 0.0000000000000000 0.0
0.0000000000000000 0.0000000000000000 0.0
0.0000000000000000 0.0000000000000000 0.0
0.0000000000000000 0.0000000000000000 0.0
0.0000000000000000 0.0000000000000000 0.0
0.0000000000000000 0.0000000000000000 0.0
0.0000000000000000 0.0000000000000000 0.0
0.0000000000000000 0.0000000000000000 0.0
0.0000000000000000 0.0000000000000000 0.0
0.0000000000000000 0.0000000000000000 0.0
0.0000000000000000 0.0000000000000000 0.0
0.0000000000000000 0.0000000000000000 0.0
0.0000000000000000 0.0000000000000000 0.0
0.0000000000000000 0.0000000000000000 0.0
0.0000000000000000 0.0000000000000000 0.0
3.8766680928689623 2.5691966304075811 0.0
4.2009659060952140 2.0114507218756876 0.0
3.9084423953679996 1.1120038073489245 0.0
3.8204932876106907 2.1980863490719678 0.0
3.7922345101136337 2.9176987953445681 0.0
3.5475149992968547 0.1308034835895870 0.0
3.9034797215931496 3.4877795724103344 0.0
3.6885766224145917 2.4285874119449478 0.0
3.6740496056371024 1.8151576286643116 0.0
3.5614734482404953 1.7038747111343653 0.0
2.9039091661491616 1.8695695684917233 0.0
3.4492680173790826 1.3338360541978600 0.0
3.2893964879700395 1.6846717417630437 0.0
3.1687259491287234 2.3852968626324236 0.0
3.2619731736980175 2.4661627823366499 0.0
3.1011038793531598 -0.4458988458634984 0.0
3.6075912398143459 3.8530956294212189 0.0
2.5306475680490408 2.1269521246107650 0.0
2.9897563794030866 1.4075499754871903 0.0
3.8228298956212896 0.5410494933117577 0.0
2.5357846587438706 0.3895136197686576 0.0
3.5521196270166207 1.1560805022098271 0.0
2.8074800347785942 2.6552159516964227 0.0
3.4915864925815194 4.5882538528587986 0.0
3.6145797240087365 2.6386358091354727 0.0
2.3647449366941351 1.3917149345528406 0.0
4.2461939294436792 2.2512459675263683 0.0
3.9194639965714870 2.5529494168742186 0.0
2.8930756816236038 -0.7773618863246525 0.0
4.0489655838410075 1.6742298014558776 0.0
2.5345725052616874 2.0724739798754825 0.0
2.6124092420720877 1.0620509580213937 0.0
3.8484155540067673 2.6961583287037061 0.0
2.7215661007493632 1.3652470890331434 0.0
3.8022122051250533 -0.3171084452879654 0.0
2.0460499171284012 1.4956377250482917 0.0
2.4100664045841298 0.6422350658946849 0.0
2.2434205613736591 0.0721537354792483 0.0
4.0634992079068288 2.4141060845678912 0.0
2.6566671977540732 1.6991327602733339 0.0
2.7970050324616347 2.4382141044941128 0.0
2.9348354656829483 4.7380981067500576 0.0
2.4642989220486666 1.3146564087561441 0.0
2.5266469461292265 2.8875508672293773 0.0
2.2030242179232196 1.6801182138457973 0.0
3.2775109289446509 3.5017032785813917 0.0
1.8634277395712997 1.7737174721677986 0.0
3.8668338211100237 0.0020592436470876 0.0
3.4973246935646234 2.3063672483130571 0.0
3.7656750679616318 2.5366362203774804 0.0
3.9624481711021944 1.8910620128777111 0.0
3.9757215662355301 1.9689811036579716 0.0
3.6958217752003710 0.4739709105273559 0.0
3.0389092145091863 1.5161350507371596 0.0
1.6512395373177773 1.6862121784766708 0.0
2.3529590323931604 1.1126358779647623 0.0
2.8813453542730292 -1.0305232244218123 0.0
3.6499493639074898 2.5207779141071822 0.0
3.8748214066013067 1.9434998436726305 0.0
1.5699471844166686 0.0954006381854994 0.0
2.0418279258468557 1.0785916286938162 0.0
3.7261686871881174 3.1767911598638179 0.0
1.1910442294542845 0.4607533070137861 0.0
1.8313930852503704 3.2599662290671589 0.0
1.5472439149925838 0.9043674642837609 0.0
3.8862763916789329 1.4568952269852142 0.0
1.8404952084974033 2.2650425646395123 0.0
1.1254349198370592 0.7584332035936284 0.0
2.1113413871022613 2.3890160821794959 0.0
2.7828041151603502 3.3828965144428134 0.0
3.4580617316449880 1.0770012307114156 0.0
3.6294516575795401 0.6577356662741441 0.0
3.5811466523439504 2.2592589223031929 0.0
3.7552759617273619 -1.0627384619242239 0.0
3.3609175533303874 1.8006428079130485 0.0
4.0072668550503359 1.6776178874763255 0.0
1.7026033679489443 -0.3215963027884942 0.0
1.4504840540586599 1.5256204034984586 0.0
3.4312418560791542 2.6174926821224531 0.0
1.2989300811538078 1.7938131768945453 0.0
3.5780978547985027 2.7115342146887573 0.0
3.8204349716082144 1.0147045187027861 0.0
1.5425286383182901 0.8164703905212597 0.0
1.3820391775720775 1.3276644885105036 0.0
3.8804222907912891 -0.8073211055159947 0.0
1.8250740947418587 1.8454423189289222 0.0
1.5662326907290738 0.8580485742724812 0.0
1.3905137196623787 0.1659352407914441 0.0
3.6836039735288066 2.3796803961934758 0.0
3.7864215369455096 0.2248847215536408 0.0
3.2592289636264615 -0.2306319370064923 0.0
1.5934201646907618 3.1018898665475749 0.0
1.2487497756982089 1.0600842933759116 0.0
4.0709966678101752 2.0824014980078864 0.0
1.3341845292047816 0.8131823403273727 0.0
1.5261018889752476 2.7799415385959119 0.0
3.6229277050703534 2.0651484090260386 0.0
1.4082232283192968 -0.2552823417809790 0.0
3.4675655758625989 0.7973407997618570 0.0
3.1619739381796639 2.5262486286732435 0.0
2.6884093121526291 -1.4025339122293907 0.0
3.9708097708749275 2.5491556355553762 0.0
3.4392566502411106 1.8906393990496555 0.0
3.8000558085494882 0.2592179546521271 0.0
2.0001128238742103 3.0558295234339030 0.0
3.6221980363573545 3.6797301034029730 0.0
2.4432689073082603 4.0337573302985508 0.0
0.8685566939675310 0.8272113583575522 0.0
3.7025679980825221 2.5498033438133434 0.0
1.1299992861901123 0.5970152395402144 0.0
3.0408601731396452 0.2835635584014826 0.0
2.1100936759629683 2.2006913670288362 0.0
3.5773339055236861 2.8259043448119723 0.0
3.0116666356737682 1.0247751718406017 0.0
0.8650719409545271 0.6285120089683226 0.0
4.0917792983688805 1.9691277975123784 0.0
3.9496025593366331 -0.3213912370192208 0.0
3.5932974785841028 1.5687111396194098 0.0
2.2920017692226193 1.5570767662892959 0.0
0.7641785996694438 3.4574472147505371 0.0
1.0081612783941818 0.8744104021195794 0.0
4.1469250370255075 1.8725814995470291 0.0
1.3114093709496237 1.0508901604315146 0.0
1.2357079453222168 0.4789262140649892 0.0
3.2051683097704395 1.8979668364951570 0.0
1.4330515482065949 -0.2914638179316678 0.0
4.1691347132717222 2.3794265623752193 0.0
3.6343053819754241 1.5731882442297502 0.0
3.1394517903494155 2.2249516989012053 0.0
2.9006956770207850 3.0168740276989361 0.0
3.9140752553280866 3.2639165007410003 0.0
1.0425790161039248 0.3175216671378354 0.0
1.7259911962090482 2.4100294897086134 0.0
3.9387240373046213 2.5246421285732694 0.0
3.6858679484700314 -1.3575806449518379 0.0
1.2131510897590310 3.3076051284187362 0.0
1.2176589733733265 0.4907843337379435 0.0
1.0091329530658566 0.4026824891402581 0.0
1.0036300187671630 0.0581048761474655 0.0
4.0236174152165258 2.4284888982829229 0.0
3.7868772800474293 2.8275536500541252 0.0
2.8362454652571669 1.6864181541115248 0.0
1.0334605801897769 1.4906677764068490 0.0
3.8605158906896833 2.6117600763536104 0.0
4.0717903803397393 2.2820297432170924 0.0
4.2171847069182435 2.0909427857340868 0.0
3.9832939572064610 1.7810486985646319 0.0
1.6336125928375111 2.3201557599446754 0.0
3.7967860620037084 -0.0658532474825340 0.0
1.2785349786358475 0.6333350770034935 0.0
3.8768603840841491 1.4618479038608669 0.0
3.9284181277829262 1.3363339564199295 0.0
2.5834600862346790 1.8046310810014066 0.0
3.1441901848789153 1.5106632347661726 0.0
3.0916755663055544 2.1317367510058109 0.0
3.0552851052796872 1.9490239472373347 0.0
3.3767387066138039 1.7059212813547180 0.0
3.9841837614764595 2.2155737166593519 0.0
1.1531457529962506 0.1660091009789778 0.0
2.8825810216736678 2.1120645824751714 0.0
2.5684351388916724 0.8713173000292936 0.0
2.7922896471852421 2.0378642804282219 0.0
2.6035178981330267 -0.0051338600455090 0.0
4.0160307040116887 -0.6103238039576890 0.0
0.9411840478018685 0.9599783195631949 0.0
2.3133685402180157 -1.0758589003365784 0.0
3.9397170801206918 2.5496579914170234 0.0
2.8511774300344208 1.4359309994248854 0.0
3.0999630876592277 1.7679025086430431 0.0
3.4902973908924220 3.9792435434644320 0.0
0.5474916776916030 1.6428944474744147 0.0
3.7043863479770249 2.6993435008352020 0.0
1.5377544791846018 1.8389250457525874 0.0
2.9647481959772528 -0.6555327932311116 0.0
3.8003245305101583 0.8092031156229569 0.0
3.5566794161289650 2.4433519690645991 0.0
0.6652433507412722 0.5303955017789166 0.0
1.1968373523434337 2.2390973787012465 0.0
3.1080112069439516 2.7633975900519707 0.0
1.7179164292476310 2.9229359827911061 0.0
1.0163713705092019 1.8856077213413003 0.0
0.8421707684245775 1.5824873900634906 0.0
1.6638350946876956 3.0814011457145480 0.0
1.4728120189584888 1.1794402942532001 0.0
2.1901549075348559 -1.4150953293607844 0.0
2.1655332570027395 1.6327775507583460 0.0
0.7084809062909204 0.3081322183124594 0.0
0.7834273076551286 0.5959490449188025 0.0
3.9070715376410705 3.4644661172515998 0.0
1.2959096185423804 -0.0725227917707976 0.0
3.2336314361266321 0.8237800239951818 0.0
3.8640548639074805 -0.0564948260961791 0.0
3.8136329119158496 2.3693916980654510 0.0
1.1250736779823429 3.3292141052403386 0.0
2.7115608318317115 0.7048367199500284 0.0
0.6311837564735704 0.3825952843656575 0.0
3.5222274194167671 -0.3801377448936586 0.0
3.6466206688022234 2.6554552031981071 0.0
0.8210195179382038 -0.0089456998908274 0.0
2.7088360221519485 -0.2143433247622166 0.0
2.7598378098030132 1.4860684315219150 0.0
3.6937930340674945 -1.7125897898782450 0.0
0.8807048857153346 0.1119239182856053 0.0
2.5392372767307778 1.5882988560359139 0.0
2.8657409878726883 2.3863969814816648 0.0
2.2559735432429071 1.9409322409159853 0.0
3.8282263668042766 2.5205025467747957 0.0
3.7764149975710684 1.8766476507743859 0.0
2.6080012335968998 1.1016888450453215 0.0
3.7031778075419308 3.7878204954272836 0.0
4.1089236566270939 2.0036696301117498 0.0
0.9717517809704633 0.6087931215197947 0.0
3.1438047414238768 3.2433017530704609 0.0
2.7761346885239839 1.6558896313455171 0.0
4.1473397484554608 2.0980186557046712 0.0
4.0890493550196521 1.8985056959219022 0.0
3.0829300360955356 2.2121166819620290 0.0
3.6847189094545150 2.5364018146789262 0.0
1.2673148692771625 -0.7674589845827822 0.0
3.4387634397524307 0.6539194823267120 0.0
3.8451240230080868 0.2068459820542038 0.0
1.6698766220676071 4.0683836883685176 0.0
2.2919531446746886 1.9029099923073194 0.0
0.7288113347788456 0.6048357335695365 0.0
3.8945997183227914 2.5583483377205507 0.0
4.1934149336084410 2.0199240624379180 0.0
3.9073061096099719 1.1352965874216872 0.0
3.7850408593749401 2.1767800758531557 0.0
3.8018148413531629 2.8977305180758055 0.0
3.5484986524900410 0.1460242870388323 0.0
3.9084908107937393 3.4778288913447581 0.0
3.7311726744739708 2.4541215402263417 0.0
3.6296646142320803 1.8286561282414162 0.0
3.6104463989160003 1.7325414582621852 0.0
2.8600299447381281 1.8345145256875452 0.0
3.4912629592488487 1.3574178864377946 0.0
3.2366886098274725 1.6623953910126386 0.0
3.1431522523737572 2.3488610453064749 0.0
3.3040138677223956 2.4626488665872883 0.0
3.1018809348431549 -0.4435039605364011 0.0
3.6083557154887327 3.8517580973342671 0.0
2.5768718804655117 2.1443775110917369 0.0
2.9398863033887630 1.3964082760754539 0.0
3.8057036243631979 0.5582102386419246 0.0
2.5589380834043229 0.4025105425793567 0.0
3.5196079688717399 1.1697212443277625 0.0
2.8017670083767454 2.6372875727812208 0.0
3.4915456742004811 4.5882415264873542 0.0
3.6320075406822232 2.6342171707658335 0.0
2.3164342429368188 1.3635521164912134 0.0
4.2466989271930515 2.2549440572992272 0.0
3.9135610818255322 2.5412672464293355 0.0
2.8929878389678563 -0.7775313050176678 0.0
4.0440407469605892 1.6977506621144511 0.0
2.5172669155810588 2.0459953423909454 0.0
2.6616983586013778 1.0835778211288172 0.0
3.8620776346627435 2.6749002885157482 0.0
2.7749675455444494 1.3933828428795199 0.0
3.7996080705271424 -0.3105924010677922 0.0
2.0093090328622738 1.4662841546843295 0.0
2.4476082755027089 0.6551716364154487 0.0
2.2493252038170457 0.0780806713067969 0.0
4.0857442365852643 2.4283441088342541 0.0
2.6170034470196275 1.6970785318176058 0.0
2.8281816816732528 2.4381244578193009 0.0
2.9347853200406946 4.7381236493352015 0.0
2.4159170312585334 1.2893683862944687 0.0
2.5268833839179274 2.8842688265334808 0.0
2.2486998711606354 1.7119331384567720 0.0
3.2813231940685013 3.5008184658406347 0.0
1.9039997061017317 1.7800922596383986 0.0
3.8566786157986015 0.0127850826886406 0.0
3.4653828967848503 2.2722109946825624 0.0
3.8005741991214523 2.5437403584232325 0.0
3.9980671698162182 1.9107568886425639 0.0
3.9353849963027394 1.9745734708755225 0.0
3.6928657394122970 0.4924543414583327 0.0
3.0100849478180831 1.5222498636896642 0.0
1.6486007587275655 1.6801560242515106 0.0
2.3057481004608924 1.0941980251712180 0.0
2.8812457018505961 -1.0307469910466094 0.0
3.6855475452693369 2.5218590726677994 0.0
3.8289598089636927 1.9292925196913899 0.0
1.5845650134892557 0.1038694627980602 0.0
2.0859099615147256 1.1004263383648043 0.0
3.7330291980601404 3.1618555797270802 0.0
1.2213260460284574 0.4723824263891890 0.0
1.8313802971217907 3.2599829568165384 0.0
1.5125185307120046 0.8821432548264051 0.0
3.8600498777698022 1.4781589217732565 0.0
1.8405858400336694 2.2649277126699854 0.0
1.1060183348876111 0.7416249588080339 0.0
2.1205314138578943 2.3875735887931380 0.0
2.7831420513495884 3.3825977711678972 0.0
3.4859395143358856 1.0995679041109228 0.0
3.6096647641439561 0.6684883042669219 0.0
3.5456381778325698 2.2298297140911814 0.0
3.7556668269841325 -1.0627625284533040 0.0
3.3098021811126945 1.7753524870709960 0.0
4.0295841780462354 1.6992272319159438 0.0
1.7023133943316113 -0.3212397772672836 0.0
1.4832066382475180 1.5397387583735527 0.0
3.4224318222479910 2.5883008954131048 0.0
1.3252099731982441 1.7961560891129569 0.0
3.6064689285895497 2.6998823459915342 0.0
3.7979154626434788 1.0363846290895564 0.0
1.5057291278661731 0.7981835102611082 0.0
1.3717478423553693 1.3124538376972681 0.0
3.8804953820046761 -0.8053846348074151 0.0
1.8252049747026542 1.8445318608630994 0.0
1.5377554686882715 0.8528731546198280 0.0
1.4132857340668570 0.1737660488835514 0.0
3.6550529991050311 2.3524918924193106 0.0
3.7741637238569163 0.2327778014067656 0.0
3.2611745590658021 -0.2205617560553987 0.0
1.5934183626349889 3.1018887609290533 0.0
1.2184839260322895 1.0341911177459200 0.0
4.0380844899218502 2.0726183571844961 0.0
1.3704057942350685 0.8345711696579595 0.0
1.5271877576828536 2.7800361702785650 0.0
3.6721140816244464 2.0929212394225041 0.0
1.4095622351247814 -0.2532677736208157 0.0
3.4823682218457970 0.8184118256640563 0.0
3.1565783376921206 2.4999182147564389 0.0
2.6883972986607270 -1.4026008242317463 0.0
3.9911575010839520 2.5586672222108513 0.0
3.3892162929125220 1.8893132786990932 0.0
3.7914889374970375 0.2736478313906088 0.0
2.0001069481468106 3.0559549302113211 0.0
3.6248598676675146 3.6758232585829047 0.0
2.4431418436386476 4.0337720306941307 0.0
0.8930484409521974 0.8473450605364140 0.0
3.6927656222267635 2.5205322114087299 0.0
1.0994087115667410 0.5811788995091549 0.0
3.0530950312625418 0.2984067353940834 0.0
2.1297281316837000 2.2011342068965978 0.0
3.6005181091556482 2.8158412459175031 0.0
2.9913799748591741 1.0323684412138159 0.0
0.8450876833140403 0.6123430581347633 0.0
4.1233257906945031 1.9888528383925701 0.0
3.9446649928151616 -0.3165525181959428 0.0
3.6378942198040600 1.5925184264400429 0.0
2.2701398000495159 1.5579895803438035 0.0
0.7641785996694440 3.4574472147505375 0.0
0.9936540685457173 0.8583908247035064 0.0
4.1360633595618816 1.8874335006018876 0.0
1.3068220515530815 1.0430664827846443 0.0
1.2714228196229136 0.4946319667813174 0.0
3.1541282145617191 1.8681820037914185 0.0
1.4327104067878429 -0.2915005972960846 0.0
4.1655438084077367 2.3801020778874689 0.0
3.5928735805757843 1.5862193809154170 0.0
3.1888394743811372 2.2499497625911333 0.0
2.8976151997238233 3.0030811318874489 0.0
3.9265882245888948 3.2580483937343558 0.0
1.0688507408873862 0.3259712838235611 0.0
1.7260757717432280 2.4101701124532795 0.0
3.9440196148440672 2.5149998339609705 0.0
3.6860965544464688 -1.3579247958866452 0.0
1.2131520203836534 3.3076051001635749 0.0
1.2498618586025578 0.5044386692094150 0.0
0.9790974227450279 0.3894620648099303 0.0
1.0214112152625341 0.0624659611920986 0.0
4.0159312820843605 2.4178742747745470 0.0
3.8003354374063565 2.8033219198970558 0.0
2.7880347551088640 1.6546360394458055 0.0
1.0322844228967878 1.4869673532299428 0.0
3.8794541150815345 2.5955671432558458 0.0
4.1001816564392621 2.3004193639029800 0.0
4.2227656634584623 2.0985131711163594 0.0
3.9519611510548618 1.7974131577938095 0.0
1.6335966688676555 2.3202122058682035 0.0
3.7922311913118389 -0.0534522045601714 0.0
1.2504525746573867 0.6226090137657131 0.0
3.8961182910945715 1.4857673364197905 0.0
3.9294692637060828 1.3637819322117173 0.0
2.5601412149530307 1.7765624723920808 0.0
3.0916099385622249 1.4965583847827371 0.0
3.0583251922384695 2.0969100705678643 0.0
3.1093411751404378 1.9813409052969351 0.0
3.4282079726435617 1.7302495910765072 0.0
3.9473638257053518 2.2020782376033545 0.0
1.1619465545787020 0.1697822037570888 0.0
2.9304069825017489 2.1165228784140138 0.0
2.6119094869875261 0.8911739008394117 0.0
2.7517445891378820 2.0048821862319834 0.0
2.6133572416821553 0.0061291309126223 0.0
4.0143854613139665 -0.6079799325316058 0.0
0.9407321822306977 0.9585434392588739 0.0
2.3133604522710023 -1.0758581437330934 0.0