# vtk DataFile Version 3.0
LucasCarvalhoTCC Results
ASCII

DATASET POLYDATA
FIELD FieldData 1
TIME 1 1 double
6.5

POINTS 531 float
0.02430399999999999 0.16425 0.0
0.5913384 0.481878 0.0
1.30475 0.591832 0.0
0.774126 0.951272 0.0
0.04779564148251592 0.1966194329439859 0.0
0.0726092153537953 0.2279866320496896 0.0
0.09876577335895967 0.2582426022760065 0.0
0.1262817198684718 0.2872673048853742 0.0
0.1551671626852806 0.3149288071400502 0.0
0.1854238368919928 0.3410826624766006 0.0
0.2170424591499632 0.3655716640299072 0.0
0.2499995164635996 0.3882263409476824 0.0
0.2842534387828506 0.4088665906889567 0.0
0.3197403359862048 0.4273050841371062 0.0
0.3563695945475563 0.4433531534921038 0.0
0.3940201673622058 0.4568300511916809 0.0
0.4325386107291805 0.4675762214989666 0.0
0.4717406913237268 0.4754709112408955 0.0
0.5114182513144845 0.480453442081874 0.0
0.5513531678859215 0.4825464217651069 0.0
0.6182637923774223 0.5096055604109244 0.0
0.647389101376845 0.5350126187545199 0.0
0.6784752958296183 0.5579802184492302 0.0
0.7112421079139344 0.5784810076698811 0.0
0.7454110434104482 0.5965507527581431 0.0
0.7807301979183381 0.6122562812860965 0.0
0.8169827939052532 0.6256694297140926 0.0
0.853985522124928 0.6368498290413532 0.0
0.8915818964261243 0.6458353363890481 0.0
0.9296339776508085 0.6526379336565091 0.0
0.9680139759519513 0.6572432424840469 0.0
1.006596418266983 0.659612648128084 0.0
1.045251165872634 0.6596877658251245 0.0
1.083837680945672 0.657397570658483 0.0
1.122201320191055 0.6526688455666412 0.0
1.160173053543044 0.6454405726452737 0.0
1.197574286953346 0.6356824063786186 0.0
1.23422961949795 0.6234159704281613 0.0
1.26998758503999 0.6087366500005643 0.0
1.285086682927543 0.6256533177085738 0.0
1.263669745906668 0.6583917156018083 0.0
1.240480125919214 0.6898988493917133 0.0
1.215532715641304 0.7200329197235763 0.0
1.188869833862339 0.7486599839005789 0.0
1.160556835593143 0.7756559317113654 0.0
1.130680194163798 0.8009104211039757 0.0
1.099347083827048 0.8243335727704395 0.0
1.066684425336412 0.8458643604021228 0.0
1.03283497048792 0.8654772531176074 0.0
0.9979492572630678 0.8831824104874066 0.0
0.9621749986495024 0.8990166556695112 0.0
0.9256475378616493 0.9130272060048579 0.0
0.8884846540507749 0.9252538945090274 0.0
0.8507866567183312 0.935715378288671 0.0
0.8126405010322847 0.9444016349017643 0.0
0.7365055179612304 0.9396161853607135 0.0
0.699310855231089 0.9266666891603924 0.0
0.6626179171945521 0.9123577070090924 0.0
0.6264901449910028 0.8966765244755546 0.0
0.5909789825447118 0.8796450886595113 0.0
0.556124897941028 0.8613059841617771 0.0
0.5219601957009091 0.8417124664434518 0.0
0.4885110616878257 0.8209207172498462 0.0
0.4558007060429968 0.7989848675704875 0.0
0.4238520247653796 0.775953675763176 0.0
0.3926900138417566 0.7518687036338616 0.0
0.3623437622133722 0.7267636709390595 0.0
0.3328479550295906 0.7006647540504483 0.0
0.3042438201183181 0.6735915983461908 0.0
0.2765795358619001 0.6455588748284606 0.0
0.2499101143933102 0.6165781952942546 0.0
0.2242967982692083 0.5866601984136335 0.0
0.1998060807431611 0.5558166834807132 0.0
0.1765083808984156 0.5240625786010467 0.0
0.154476512720734 0.491417660368959 0.0
0.133784033184808 0.457907916333494 0.0
0.114503564227142 0.4235664945146766 0.0
0.09670517293008124 0.3884342245925089 0.0
0.0804548910754031 0.3525597611689231 0.0
0.06581337946329963 0.3159993090744527 0.0
0.05283482490365372 0.2788161107032479 0.0
0.0415660226296666 0.2410796291505872 0.0
0.03204569406625649 0.2028646095712164 0.0
0.5272009874003867 0.6419624505772817 0.0
0.7421848286576707 0.7716726266421574 0.0
0.8789503364783713 0.7829234141383637 0.0
0.6149390992905563 0.7449438030688011 0.0
0.4064556042659638 0.5942834991165423 0.0
0.9875021850865396 0.7666507358101158 0.0
0.3188065960661005 0.539594034984892 0.0
0.61365100263957 0.6399487878797632 0.0
0.8049090660915541 0.8464379870891131 0.0
0.7099820328572021 0.6828840522539854 0.0
0.5239467234991928 0.7406922291088611 0.0
0.8154056325591208 0.7211774015928547 0.0
0.6676178829014909 0.8152713180209475 0.0
0.4416080359619968 0.674360953773491 0.0
0.489443615375965 0.5654986742123573 0.0
1.076665773779852 0.7387182918829318 0.0
0.250390543112057 0.4877450112830265 0.0
0.5736819937919005 0.5790366884881447 0.0
0.7263706755366466 0.8615301097563091 0.0
0.940143307772686 0.8233944909985552 0.0
0.927065543677544 0.7236459161626674 0.0
0.8744389806957806 0.8609114380468947 0.0
0.336888362650554 0.6081958070931937 0.0
0.2030757334857187 0.4383942902513459 0.0
0.3861483329720647 0.5255533415902591 0.0
0.5621001921466506 0.7923778419149285 0.0
0.6822897332295245 0.7428043323059399 0.0
0.5764061681675353 0.6881266532454204 0.0
1.129195449682892 0.7163224153578123 0.0
0.8157794419559141 0.7831214907157077 0.0
0.3806644703311284 0.6554275822782399 0.0
0.7695737871052837 0.669593045341503 0.0
0.4699375460410929 0.6217118815516158 0.0
0.6830867370872363 0.630350317562806 0.0
1.040416897214502 0.7929392348941093 0.0
0.4604428393605979 0.7321209818568342 0.0
0.8729552856459739 0.7015083313474691 0.0
1.017010765275644 0.7166925631396708 0.0
0.6458785458483771 0.6946878992565794 0.0
0.7733575582969163 0.8941098392103913 0.0
0.4457537579383052 0.5273353624588528 0.0
0.163830623786951 0.3903175742448083 0.0
0.6095823984734953 0.8256600013628639 0.0
0.2618074352614998 0.5435604438425528 0.0
0.6287880420949764 0.5875838132975476 0.0
0.3100402147222924 0.4835410260423071 0.0
0.5422177893302824 0.5343158927797464 0.0
0.9964262112680041 0.8213447667248638 0.0
0.4971609598823845 0.6906859160718212 0.0
0.5740517260168769 0.633982031239429 0.0
0.7423299505107201 0.7218768583704394 0.0
0.767147744476665 0.819658485932403 0.0
0.9427329070375209 0.7774595780066723 0.0
0.8375285793481674 0.8869398470561132 0.0
0.2879426409425497 0.5872676364411625 0.0
0.6797562629663748 0.8647676397847667 0.0
1.171674168522591 0.6949964056806914 0.0
0.5261010885606964 0.6055079299963303 0.0
0.7081534744446967 0.8078672678314597 0.0
0.9681672688626206 0.705385299758921 0.0
0.7364069054947873 0.6432919177737106 0.0
0.363826821075015 0.5678764295233764 0.0
0.826170216989844 0.6605791783255148 0.0
0.1284439337099834 0.3602715082199688 0.0
0.518140828090112 0.783905985497134 0.0
0.8452908336054504 0.8167586152211004 0.0
0.2015204468558833 0.492088055688788 0.0
0.4005883523205732 0.7121294304856254 0.0
0.3551392316798573 0.4864133323669936 0.0
0.2501727034998737 0.4443035857235296 0.0
0.857938396055507 0.7390317828783199 0.0
0.9245301815433076 0.8668102132501951 0.0
0.5702050292970205 0.7323438487067678 0.0
1.111607633075016 0.759318252473435 0.0
0.6317193755596126 0.7853891653733797 0.0
0.7921381265818805 0.7497379312370454 0.0
1.088942426366261 0.7015435214091311 0.0
0.5818207607488639 0.5352340257544296 0.0
0.4203532416309484 0.6369649631143086 0.0
0.4854818714173937 0.5131439318707094 0.0
0.4475429831528036 0.5690430472086269 0.0
0.8968753306595262 0.8225547516037004 0.0
0.6339557898063448 0.8543470494763272 0.0
0.3416564411796998 0.6516449771136894 0.0
1.082970576264455 0.7856036465430698 0.0
0.2255204648032354 0.5229464838393291 0.0
0.7335043541589261 0.9012744999286941 0.0
0.9097052989734319 0.6921177492721042 0.0
0.5363428275528405 0.6992389299864537 0.0
0.9657777897300287 0.8588269742066746 0.0
1.025947476617909 0.7556651119714124 0.0
0.1090829970454354 0.3226173037985549 0.0
0.4836644525169279 0.7663103281018557 0.0
0.6910856326166581 0.777867529208468 0.0
0.6694391877434097 0.5946719355048008 0.0
0.2954883530575775 0.4501042133334518 0.0
0.6746032498128595 0.6643957640016517 0.0
1.054636636429828 0.6974583960183274 0.0
0.8939255235163368 0.7470597914537064 0.0
0.3749741568555516 0.6190655430398917 0.0
1.204101441114554 0.6801433534918062 0.0
0.6130053345415899 0.6785345531932346 0.0
0.7679719108452487 0.8562682874000032 0.0
0.9710820219997449 0.8008372590855476 0.0
0.1608022352294362 0.4242591696906621 0.0
0.2865399820604418 0.5141369963640697 0.0
0.1962258775846918 0.4008383427744516 0.0
0.6210920174972845 0.5516143721732873 0.0
0.4843009180093644 0.6583977883024127 0.0
0.5695029195102991 0.8267073580550881 0.0
0.9562891163300477 0.7436031251145003 0.0
0.4174190173896447 0.5044019081507806 0.0
0.410860431802698 0.5535781448116232 0.0
0.8709320861791604 0.9002602580953145 0.0
0.427354757192076 0.7399041791280969 0.0
0.7107884943357746 0.7172753954970394 0.0
1.030382288537246 0.8267335242583146 0.0
0.7737440530215844 0.7115751739064536 0.0
0.8042035044852396 0.9123190309183211 0.0
0.0480920891272324 0.2181807374272496 0.0
0.3695079235280397 0.6886893012630373 0.0
0.773516204411121 0.7830673827025234 0.0
0.302776671534508 0.6210168062901616 0.0
0.7150573728414059 0.6149413270404035 0.0
0.5863276441271683 0.769748656022605 0.0
1.143752049005473 0.6780480059671409 0.0
0.6477132714923303 0.7318578097016951 0.0
0.8380052680878572 0.8531154611905379 0.0
0.5966224054445893 0.6051703156405629 0.0
0.3207240819522855 0.5772784374275386 0.0
0.3520131451607586 0.5263918604440553 0.0
0.8573528491808811 0.6709738722470224 0.0
0.1797236573643203 0.460867988842514 0.0
0.5540828191547277 0.6661566975721369 0.0
1.158039843450239 0.7357536542887966 0.0
0.08638006908591334 0.286237566592474 0.0
0.790861820497242 0.6466611559014377 0.0
0.5362079962218838 0.8121454698907893 0.0
0.9405172130232713 0.6862060282668497 0.0
0.6039359324506977 0.711463595189489 0.0
0.4440093493753478 0.6096873538428137 0.0
0.5500746279087338 0.7620941994763282 0.0
0.2578504496023611 0.5739900063885278 0.0
0.502526452350101 0.6209820553182169 0.0
0.6799833858912959 0.7033681517905728 0.0
0.7183487148906835 0.7518430858176317 0.0
0.8006701240044786 0.8118713608014352 0.0
0.1304684854221093 0.3934039266496895 0.0
1.00789495394612 0.7937868725857601 0.0
0.696960396255943 0.893370944718147 0.0
0.8258315165019564 0.7538365084989149 0.0
0.8462950259502577 0.775614153529746 0.0
0.4082018839227037 0.6749460331934272 0.0
0.7025889307788081 0.8378536687159448 0.0
0.4666676520109517 0.6984557076050861 0.0
[...]
POINT_DATA 531

VECTORS Velocity float
0.0000000000000000 1.0000000000000000 0.0
0.0000000000000000 1.0000000000000000 0.0
2.6381940914042161 -0.9593272438874840 0.0
1.7893229975077694 1.0224100701304895 0.0
0.0000000000000000 1.0000000000000000 0.0
0.0000000000000000 1.0000000000000000 0.0
0.0000000000000000 1.0000000000000000 0.0
0.0000000000000000 1.0000000000000000 0.0
0.0000000000000000 1.0000000000000000 0.0
0.0000000000000000 1.0000000000000000 0.0
0.0000000000000000 1.0000000000000000 0.0
0.0000000000000000 1.0000000000000000 0.0
0.0000000000000000 1.0000000000000000 0.0
0.0000000000000000 1.0000000000000000 0.0
0.0000000000000000 1.0000000000000000 0.0
0.0000000000000000 1.0000000000000000 0.0
0.0000000000000000 1.0000000000000000 0.0
0.0000000000000000 1.0000000000000000 0.0
0.0000000000000000 1.0000000000000000 0.0
0.0000000000000000 1.0000000000000000 0.0
0.0000000000000000 0.0000000000000000 0.0
0.0000000000000000 0.0000000000000000 0.0
0.0000000000000000 0.0000000000000000 0.0
0.0000000000000000 0.0000000000000000 0.0
0.0000000000000000 0.0000000000000000 0.0
0.0000000000000000 0.0000000000000000 0.0
0.0000000000000000 0.0000000000000000 0.0
0.0000000000000000 0.0000000000000000 0.0
0.0000000000000000 0.0000000000000000 0.0
0.0000000000000000 0.0000000000000000 0.0
0.0000000000000000 0.0000000000000000 0.0
0.0000000000000000 0.0000000000000000 0.0
0.0000000000000000 0.0000000000000000 0.0
0.0000000000000000 0.0000000000000000 0.0
0.0000000000000000 0.0000000000000000 0.0
0.0000000000000000 0.0000000000000000 0.0
0.0000000000000000 0.0000000000000000 0.0
0.0000000000000000 0.0000000000000000 0.0
0.0000000000000000 0.0000000000000000 0.0
2.6783024819276489 -1.7943071053111417 0.0
3.6706721903595247 -2.3036182450091331 0.0
3.7614708277848110 -2.2270759391634094 0.0
3.7624796458290315 -1.9756509838467049 0.0
3.8562822921820770 -1.7639175573363481 0.0
3.9660117221304487 -1.4685941738864459 0.0
4.0326921815798604 -1.3218447087332921 0.0
4.1715009190843197 -1.1030938143059563 0.0
4.1757536596520515 -0.8181549227978310 0.0
4.1695256315712168 -0.5571261741030827 0.0
4.0443255049733082 -0.2628331233874536 0.0
3.8249951390519228 0.0383819123880109 0.0
3.6309154653791014 0.2728767788329833 0.0
3.2583414780281217 0.5279601305386558 0.0
2.6189344687671250 1.0871625093619366 0.0
1.7621132349933055 0.9346786995490216 0.0
0.0000000000000000 0.0000000000000000 0.0
0.0000000000000000 0.0000000000000000 0.0
0.0000000000000000 0.0000000000000000 0.0
0.0000000000000000 0.0000000000000000 0.0
0.0000000000000000 0.0000000000000000 0.0
0.0000000000000000 0.0000000000000000 0.0
0.0000000000000000 0.0000000000000000 0.0
0.0000000000000000 0.0000000000000000 0.0
0.0000000000000000 0.0000000000000000 0.0
0.0000000000000000 0.0000000000000000 0.0
0.0000000000000000 0.0000000000000000 0.0
0.0000000000000000 0.0000000000000000 0.0
0.0000000000000000 0.0000000000000000 0.0
0.0000000000000000 0.0000000000000000 0.0
0.0000000000000000 0.0000000000000000 0.0
0.0000000000000000 0.0000000000000000 0.0
0.0000000000000000 0.0000000000000000 0.0
0.0000000000000000 0.0000000000000000 0.0
0.0000000000000000 0.0000000000000000 0.0
0.0000000000000000 0.0000000000000000 0.0
0.0000000000000000 0.0000000000000000 0.0
0.0000000000000000 0.0000000000000000 0.0
0.0000000000000000 0.0000000000000000 0.0
0.0000000000000000 0.0000000000000000 0.0
0.0000000000000000 0.0000000000000000 0.0
0.0000000000000000 0.0000000000000000 0.0
0.0000000000000000 0.0000000000000000 0.0
0.0000000000000000 0.0000000000000000 0.0
4.0054894458886547 2.6026118657589659 0.0
4.2969182364872092 2.1738543294046573 0.0
3.9047120636445554 1.1909441685955582 0.0
3.8317812324879066 2.2049485153884421 0.0
3.8208806703031315 2.9200109752357384 0.0
3.4190616156795737 0.0664742882505842 0.0
3.9088561313641716 3.4760912470571430 0.0
3.7863898630498856 2.4471171023498264 0.0
3.7620197376153293 1.9769931925098456 0.0
3.5795110844035203 1.7450051273742904 0.0
2.8350652260816629 1.7926881236690873 0.0
3.3378596427760030 1.3869897775119524 0.0
3.2111335926065783 1.6704689513812379 0.0
3.1603820193757080 2.3420598566721904 0.0
3.2695032946732243 2.5127962632145699 0.0
3.0154633314452726 -0.5045591771677053 0.0
3.6099413445942532 3.8487431425535159 0.0
2.5039220309377939 2.1145621905712004 0.0
2.9091222690454472 1.4112435095807883 0.0
3.9374431952813911 0.5361890786394187 0.0
2.3037652584337267 0.3632405459188641 0.0
3.7024390913029062 1.2367381017547194 0.0
2.7985334688676193 2.6299498003335207 0.0
3.4916608852765285 4.5880265477829383 0.0
3.6326322171325498 2.6433348613778844 0.0
2.2473727487047803 1.3211469729528424 0.0
4.3405073334538224 2.3610865458137198 0.0
4.0256885243186042 2.5813218329970029 0.0
2.8493045541419573 -0.7944211805894408 0.0
4.1186694775578854 1.8302501789712329 0.0
2.5151330295284837 2.0316350780475663 0.0
2.5343336320862115 1.0719082627580094 0.0
3.9363429334946747 2.7324596872871552 0.0
2.7134454326350999 1.3460414787986450 0.0
3.8244334821130721 -0.4415740137255923 0.0
1.9695584586799761 1.4322427067753607 0.0
2.2098907935656618 0.6107646187606668 0.0
2.0735938650047325 0.0362086992457349 0.0
4.1790813409049496 2.4824036865804633 0.0
2.6142941593847944 1.7192934019359438 0.0
2.8023799609259323 2.4561243060657967 0.0
2.9347192607934249 4.7381456407020606 0.0
2.3530938938634471 1.2560523592664292 0.0
2.5249109361604414 2.8795447313749891 0.0
2.1717344990568721 1.6406430579747420 0.0
3.2865768596967002 3.5018191392331559 0.0
1.8114096594770168 1.7688325547955341 0.0
3.9982526648110426 -0.1056292460369034 0.0
3.5043260322959910 2.2639482378434117 0.0
3.8915542696665226 2.5711521333491576 0.0
3.9934253339676395 2.0157943060179742 0.0
4.0586089562150036 2.1254090522100375 0.0
3.6200843747629414 0.4493143196004536 0.0
3.1317399056335709 1.6024557085946294 0.0
1.6449874651400638 1.6765603065497674 0.0
2.2413803875270002 1.0694534814157872 0.0
2.8647067836818256 -1.0490730649868103 0.0
3.7319285525628989 2.5620590017526537 0.0
3.8834872317512210 1.9972323468908031 0.0
1.4006220758422545 0.0713825468891687 0.0
2.0101747606774127 1.0957697318320538 0.0
3.7357677849017539 3.1674494667312239 0.0
1.1030412971484702 0.4419541747486121 0.0
1.8313766053871436 3.2599907957184051 0.0
1.4712848001387193 0.8507825536706028 0.0
3.9992251483096064 1.5929313939182232 0.0
1.8405761818320066 2.2640014105131452 0.0
1.0923933795713918 0.7256779934312140 0.0
2.1237719700176947 2.3894891312682809 0.0
2.7846296444320275 3.3820399468292250 0.0
3.3136470569859360 1.1016545422997310 0.0
3.8468614899824418 0.6496772514238918 0.0
3.5802382806781354 2.2247378012521848 0.0
3.7617535944321481 -1.1314521184081998 0.0
3.2853582304663478 1.7723183257422457 0.0
4.0215489630801802 1.8133392313735353 0.0
1.6367928646171677 -0.3349016891372985 0.0
1.4062334496602611 1.5076206191026249 0.0
3.4477377491600625 2.5916434880620680 0.0
1.2839089800998078 1.8025488957054834 0.0
3.6040833014384757 2.7488078368687692 0.0
3.9432788232047300 1.0919519641999214 0.0
1.4613137989657228 0.7747867197603544 0.0
1.3690216770476364 1.3054267646873836 0.0
3.9172644386334134 -0.9396374035906365 0.0
1.8248561436593760 1.8424550129783535 0.0
1.5116705427279429 0.8501998580303785 0.0
1.2350689987329080 0.1573742741490094 0.0
3.7168974666270365 2.3552166466730937 0.0
4.0426530319899792 0.1428179726465403 0.0
3.1310706786686966 -0.3205239072743387 0.0
1.5934210146822845 3.1018864406768527 0.0
1.1873915004338931 1.0059174912326403 0.0
4.1082593899601800 2.1610470462972615 0.0
1.3158841060655304 0.7942515791054778 0.0
1.5297496352892999 2.7802294078754910 0.0
3.6781109259584053 2.0996501538292915 0.0
1.3217861424166004 -0.2702471459434203 0.0
3.3046848159605529 0.8007300081997664 0.0
3.1583568093020311 2.4943005422920925 0.0
2.6857510324427674 -1.4078493964964878 0.0
4.1010286300473169 2.6142163045569413 0.0
3.4407024319071464 1.9764188475651359 0.0
3.8154541932228900 0.2089879762199020 0.0
2.0000855723341515 3.0560368048762503 0.0
3.6271110793277681 3.6728336187827630 0.0
2.4430310530698076 4.0338075131203599 0.0
0.8442846075995335 0.7999325034821697 0.0
3.7676597400842544 2.5479797329022111 0.0
1.0601934092931229 0.5604853165424512 0.0
2.8307368440451262 0.2450894237726530 0.0
2.1218043017540191 2.2105332145074255 0.0
3.5971914882409144 2.8411151287701593 0.0
3.1396830970839185 1.0502085290059902 0.0
0.8264129600616044 0.5932687471970769 0.0
4.1562638459487617 2.0668258812556259 0.0
4.1313528649484663 -0.4706803670110301 0.0
3.5486823540988457 1.6494605426488791 0.0
2.2983092429892582 1.5858269408186301 0.0
0.7641786050714512 3.4574472034568822 0.0
0.9863098266266391 0.8473061476357229 0.0
4.2485125967126427 2.0475016931808705 0.0
1.3046148312100616 1.0401112546739490 0.0
1.2221168502694817 0.4760793283960998 0.0
3.1201208759233361 1.8462389198167524 0.0
1.4054395428970805 -0.2955243829534699 0.0
4.2686749561358273 2.4557711597219529 0.0
3.7517723551857096 1.6966926279516110 0.0
3.1691822971229682 2.2117739496156230 0.0
2.8935407155081680 2.9986058488116347 0.0
3.9320683006236505 3.2623941313340779 0.0
0.9421209215830866 0.2979883776145734 0.0
1.7262046939385807 2.4100829443983147 0.0
4.0721956974435676 2.5465679172021893 0.0
3.6905116976585330 -1.4055275839644523 0.0
1.2131528928928774 3.3076046003188004 0.0
1.1546640564714477 0.4744191755705674 0.0
0.9443036913091030 0.3766236532304649 0.0
0.8836612049098557 0.0530955927002005 0.0
4.1227380059841341 2.4670806702055734 0.0
3.8377120346250195 2.8499808480819850 0.0
2.7461888891907611 1.6136842542693297 0.0
1.0306189137790494 1.4839511063127895 0.0
3.9654843217431104 2.6531891739549640 0.0
4.1647558124161081 2.3701516460142100 0.0
4.3042276960900754 2.2306792379203029 0.0
4.0926418806514571 1.9617991004214725 0.0
1.6335549346212117 2.3202439923896061 0.0
3.8006137908004400 -0.1808242299266950 0.0
1.2167237960452739 0.6139584108234556 0.0
3.8484014405769238 1.5550140363747653 0.0
3.9379782388121578 1.4359795677805225 0.0
2.5575356885144225 1.7508360844440434 0.0
3.0734262230069604 1.5217173125344734 0.0
3.0722375246304012 2.0787509139551839 0.0
3.0683623565849736 1.9385524008557558 0.0
3.3503783579376254 1.7804711057041644 0.0
3.9976335933971940 2.2703498929553221 0.0
1.0349748933283662 0.1415673155095037 0.0
2.8669207223801925 2.1275219115793766 0.0
2.3878695524255233 0.8507683962870880 0.0
2.7332618653870431 1.9822170725249526 0.0
2.3984345839291046 -0.0497252267091079 0.0
4.1546977440637241 -0.7769431749266279 0.0
0.9397428659587601 0.9564357379914367 0.0
2.3130174013480307 -1.0760516236700497 0.0
4.0868765383009595 2.5932248040110100 0.0
2.8423395319029550 1.4325383312238211 0.0
3.1350582624070977 1.8744379794677726 0.0
3.4918029640890116 3.9779151219714364 0.0
0.5214278171904849 1.6424409397037791 0.0
3.7520081583837186 2.7549882907852759 0.0
1.5509881026913552 1.8409342263220663 0.0
2.9091169722990480 -0.7044754491663948 0.0
3.7725226783905343 0.8300569902783945 0.0
3.6299695537141390 2.4725700263469830 0.0
0.6295630830742790 0.4970170624680831 0.0
1.2013191774653798 2.2394667789461340 0.0
3.1057196565205660 2.7506537264520814 0.0
1.7179668766633360 2.9227270030963406 0.0
1.0191940024880106 1.8920215077090943 0.0
0.8130636283360858 1.5836880329443577 0.0
1.6637025513696773 3.0813959600274829 0.0
1.4427738742581209 1.1829783361810555 0.0
2.1903460846164182 -1.4148502506965350 0.0
2.1122656574097567 1.5668962718001562 0.0
0.6599713428044947 0.2920222829658491 0.0
0.7635901183879398 0.5773120627851522 0.0
3.9214454119518445 3.4616170931964123 0.0
1.2603025716855183 -0.0786861372723317 0.0
3.4148332912087080 0.8336110578652133 0.0
4.1193330382582118 -0.1894625536693229 0.0
3.9076459209154013 2.4049774902329926 0.0
1.1250736304968134 3.3292141695505868 0.0
2.4811096677819950 0.6907269145175532 0.0
0.5899220158754067 0.3547145538412577 0.0
3.4546162604382884 -0.4967157560838879 0.0
3.6901605004019591 2.6440239878606957 0.0
0.7379813249496141 -0.0166305967095117 0.0
2.5701775569086363 -0.2762617722649613 0.0
2.6386284321025495 1.4190400244499470 0.0
3.6934285161369131 -1.7365326474764957 0.0
0.7850625494109291 0.1050821705363904 0.0
2.4105709714885433 1.5293657897799444 0.0
2.8547225206089193 2.4217540529092947 0.0
2.2147993410821702 1.9613337369577837 0.0
3.9215010756360766 2.5277280633347852 0.0
3.7753700551417966 1.9501453770363633 0.0
2.4848338457284713 1.1058830271772824 0.0
3.7093775039556172 3.7864047686829636 0.0
4.1912770511686244 2.1440308263841552 0.0
0.9327202487053872 0.5970825418500099 0.0
3.1439236287121308 3.2360232893453933 0.0
2.7157073302895385 1.6773866062658929 0.0
4.2230924732571546 2.2244797956668680 0.0
4.1394378725297267 2.0501772376734073 0.0
3.1085323311734991 2.1900807937398530 0.0
3.7436708038728810 2.5826624547576671 0.0
1.2604149422934632 -0.7699193038500154 0.0
3.2653353131739333 0.6436885926806843 0.0
4.0111723157663919 0.1283031123026845 0.0
1.6698191403037221 4.0683864353790309 0.0
2.2529274433119317 1.8642802171060440 0.0
0.7054457858456585 0.6015036699623701 0.0
4.0121727960970768 2.5975060599765043 0.0
4.2939728290813219 2.1784817421297178 0.0
3.9048628391056459 1.1980288934047076 0.0
3.8207105160140098 2.1984177195817467 0.0
3.8235964563819502 2.9148134319310617 0.0
3.4192652027563382 0.0691141309905582 0.0
3.9096311184872214 3.4745096094193242 0.0
3.8000854473330778 2.4540678032295795 0.0
3.7506156336183842 1.9821066566652243 0.0
3.5941838189671356 1.7543823898196480 0.0
2.8223281188975631 1.7815408203786403 0.0
3.3482396497861986 1.3953326568341982 0.0
3.1949294449503873 1.6644234320140225 0.0
3.1553048732588178 2.3311529567322213 0.0
3.2801482677448437 2.5102248547959451 0.0
3.0154523815510581 -0.5045977693636741 0.0
3.6098494761489492 3.8489504281290579 0.0
2.5174219075532824 2.1182949535052678 0.0
2.8949439648431290 1.4086317184860804 0.0
3.9349963740589740 0.5401060782280943 0.0
2.3074513243474080 0.3663665137554458 0.0
3.6954959756064745 1.2403714848574261 0.0
2.7982791820090891 2.6268815680923541 0.0
3.4916003473784749 4.5880899849867216 0.0
3.6352314913500208 2.6419940198859835 0.0
2.2325339452031914 1.3124535216245172 0.0
4.3401905312718894 2.3630540297297657 0.0
4.0245840062694977 2.5768071649531730 0.0
2.8492727151172028 -0.7944904950503984 0.0
4.1173304309832979 1.8389281519378462 0.0
2.5122965005773752 2.0257271783978186 0.0
2.5481585930040400 1.0789428159762500 0.0
3.9413678834675578 2.7246130616741588 0.0
2.7298945412292839 1.3545770231260286 0.0
3.8245035346834118 -0.4411210754045704 0.0
1.9598811279548873 1.4234335868051691 0.0
2.2176915884131523 0.6143507243947658 0.0
2.0738426284197726 0.0368947322484744 0.0
4.1859852943717097 2.4867828068094555 0.0
2.6037846442747568 1.7190300091069093 0.0
2.8085579863947685 2.4553876788625488 0.0
2.9347129814470923 4.7381533524642512 0.0
2.3382492119260032 1.2483816973797646 0.0
2.5251988910847620 2.8796644774140261 0.0
2.1855139943434718 1.6495838522422317 0.0
3.2865139063415447 3.5015173249845133 0.0
1.8219006366509825 1.7700410780456075 0.0
3.9973637443916399 -0.1041336461024433 0.0
3.4966882051397534 2.2523778122042755 0.0
3.9031717904172361 2.5717734786782502 0.0
4.0033635036448345 2.0234816262016895 0.0
4.0473000945237780 2.1286252926704301 0.0
3.6198155484921322 0.4534812899605400 0.0
3.1250850634975009 1.6043243351316536 0.0
1.6450987712051559 1.6761079691900034 0.0
2.2273527042717709 1.0644493464221343 0.0
2.8646956332613702 -1.0491146348614484 0.0
3.7429184686568884 2.5603189494971721 0.0
3.8693424387188755 1.9942757728441363 0.0
1.4022943415555429 0.0730107541893362 0.0
2.0233301126135603 1.1028489924832683 0.0
3.7373010425740203 3.1642911441609529 0.0
1.1104544152559819 0.4452893455632639 0.0
1.8313758871014412 3.2599921914537506 0.0
1.4607939255419051 0.8438668462717959 0.0
3.9932667328557931 1.5997661118921018 0.0
1.8406129179001742 2.2641907952663254 0.0
1.0881831059047278 0.7215473144956126 0.0
2.1246073707761850 2.3889510191903507 0.0
2.7843911650536008 3.3820589356818838 0.0
3.3197920735036033 1.1089212011096488 0.0
3.8435030751975017 0.6521012333641397 0.0
3.5696612774672922 2.2152256637518875 0.0
3.7618235738185515 -1.1315878297251487 0.0
3.2694431606694607 1.7647988106832102 0.0
4.0271281055311778 1.8218173913328963 0.0
1.6366426559645626 -0.3349738739083055 0.0
1.4151816535472750 1.5110120359154127 0.0
3.4469464286658589 2.5839522633106542 0.0
1.2894906082397461 1.8026893169067206 0.0
3.6106536417509139 2.7447654878452399 0.0
3.9392871107211143 1.0978570276937125 0.0
1.4501512398249918 0.7693947922766147 0.0
1.3676146428021827 1.3027014363306901 0.0
3.9174231851601413 -0.9397139011648870 0.0
1.8249890925960579 1.8427006498099960 0.0
1.5038338047500472 0.8489151525063501 0.0
1.2388028649401228 0.1594241458499592 0.0
3.7092727386163520 2.3459148147028430 0.0
4.0411107141821399 0.1441128504545323 0.0
3.1312393594826453 -0.3194538023876184 0.0
1.5934213335390537 3.1018860777847248 0.0
1.1786505427141645 0.9979469928839337 0.0
4.0976785934059548 2.1592151619881719 0.0
1.3270064223005325 0.8006497925637216 0.0
1.5294661255549817 2.7801459766344911 0.0
3.6933337889295399 2.1083069829015084 0.0
1.3216367350750826 -0.2701489442106628 0.0
3.3074417015818129 0.8067715198023065 0.0
3.1582792414981045 2.4886116848359321 0.0
2.6857510715158956 -1.4078495971395950 0.0
4.1077387689495284 2.6166656029543405 0.0
3.4270603607234849 1.9770237579815304 0.0
3.8145485345650130 0.2116954354288643 0.0
2.0000742270480374 3.0560665008018923 0.0
3.6272541965482437 3.6725532521492257 0.0
2.4429996761179700 4.0338199803049308 0.0
0.8514320524790705 0.8054732189408683 0.0
3.7666530549492792 2.5377244016467078 0.0
1.0507747964120626 0.5556387095085745 0.0
2.8324060786726082 0.2481484087622437 0.0
2.1250202101580618 2.2101488858366602 0.0
3.6016946669035597 2.8381075240658622 0.0
3.1353210038332828 1.0520043442933469 0.0
0.8214234694247057 0.5888402729221509 0.0
4.1653227112873621 2.0739398947160663 0.0
4.1311904625981279 -0.4702872858606111 0.0
3.5607354980289680 1.6581820869842352 0.0
2.2929131522226505 1.5861669645718379 0.0
0.7641786050714513 3.4574472034568822 0.0
0.9836373995488233 0.8438167502355223 0.0
4.2450198754480271 2.0540221271009642 0.0
1.3044216174936221 1.0392248238577453 0.0
1.2330802469223925 0.4809665251808211 0.0
3.1043440629410517 1.8370593531846324 0.0
1.4053891822277453 -0.2955373742482028 0.0
4.2673562543291297 2.4561654284385059 0.0
3.7420956300062529 1.7005841849473144 0.0
3.1844750154507104 2.2180024830802259 0.0
2.8935333324355521 2.9965843767860707 0.0
3.9336610425122349 3.2610323043796758 0.0
0.9477291939030772 0.3002004807338863 0.0
1.7262046080983022 2.4101670207907437 0.0
4.0752031288592594 2.5421480793457012 0.0
3.6905274012528504 -1.4056010725562378 0.0
1.2131529757900963 3.3076046056730473 0.0
1.1634383408005644 0.4784612138865327 0.0
0.9351004830557287 0.3725374849081493 0.0
0.8861424704815319 0.0540475440075566 0.0
4.1205705287685195 2.4635371123036829 0.0
3.8418614055533995 2.8424382386760225 0.0
2.7315310014280141 1.6036787413025952 0.0
1.0308156311398395 1.4839508598297411 0.0
3.9721411386745289 2.6463902479453614 0.0
4.1733045932472965 2.3763105141687171 0.0
4.3052284945825452 2.2345939066066434 0.0
4.0841898581684486 1.9682988867228086 0.0
1.6335521323587439 2.3202478415037184 0.0
3.8004423036126052 -0.1791896443591512 0.0
1.2088094359943473 0.6110091654906356 0.0
3.8530504210253826 1.5636850554225263 0.0
3.9382266574944027 1.4451228637331535 0.0
2.5531862298001617 1.7438269212387327 0.0
3.0578390978287526 1.5185220153340171 0.0
3.0642853341732508 2.0677228736550624 0.0
3.0851272117103399 1.9481090515365391 0.0
3.3652853652307435 1.7890604688821770 0.0
3.9859395294050466 2.2666886037777307 0.0
1.0356030824232485 0.1420429583874920 0.0
2.8802010143846641 2.1274059158608125 0.0
2.3978356453611194 0.8568969135458036 0.0
2.7222227319483716 1.9714456200565456 0.0
2.3994110135492597 -0.0478734375222661 0.0
4.1548193102551423 -0.7769315086063537 0.0
0.9399173589920881 0.9566383036150933 0.0
2.3130184850101787 -1.0760502007472077 0.0