# vtk DataFile Version 3.0
LucasCarvalhoTCC Results
ASCII

DATASET POLYDATA
FIELD FieldData 1
TIME 1 1 double
3.6

POINTS 531 float
0.02430399999999999 0.16425 0.0
0.5913384 0.481878 0.0
1.30475 0.591832 0.0
0.774126 0.951272 0.0
0.04779564148251592 0.1966194329439859 0.0
0.0726092153537953 0.2279866320496896 0.0
0.09876577335895967 0.2582426022760065 0.0
0.1262817198684718 0.2872673048853742 0.0
0.1551671626852806 0.3149288071400502 0.0
0.1854238368919928 0.3410826624766006 0.0
0.2170424591499632 0.3655716640299072 0.0
0.2499995164635996 0.3882263409476824 0.0
0.2842534387828506 0.4088665906889567 0.0
0.3197403359862048 0.4273050841371062 0.0
0.3563695945475563 0.4433531534921038 0.0
0.3940201673622058 0.4568300511916809 0.0
0.4325386107291805 0.4675762214989666 0.0
0.4717406913237268 0.4754709112408955 0.0
0.5114182513144845 0.480453442081874 0.0
0.5513531678859215 0.4825464217651069 0.0
0.6182637923774223 0.5096055604109244 0.0
0.647389101376845 0.5350126187545199 0.0
0.6784752958296183 0.5579802184492302 0.0
0.7112421079139344 0.5784810076698811 0.0
0.7454110434104482 0.5965507527581431 0.0
0.7807301979183381 0.6122562812860965 0.0
0.8169827939052532 0.6256694297140926 0.0
0.853985522124928 0.6368498290413532 0.0
0.8915818964261243 0.6458353363890481 0.0
0.9296339776508085 0.6526379336565091 0.0
0.9680139759519513 0.6572432424840469 0.0
1.006596418266983 0.659612648128084 0.0
1.045251165872634 0.6596877658251245 0.0
1.083837680945672 0.657397570658483 0.0
1.122201320191055 0.6526688455666412 0.0
1.160173053543044 0.6454405726452737 0.0
1.197574286953346 0.6356824063786186 0.0
1.23422961949795 0.6234159704281613 0.0
1.26998758503999 0.6087366500005643 0.0
1.285086682927543 0.6256533177085738 0.0
1.263669745906668 0.6583917156018083 0.0
1.240480125919214 0.6898988493917133 0.0
1.215532715641304 0.7200329197235763 0.0
1.188869833862339 0.7486599839005789 0.0
1.160556835593143 0.7756559317113654 0.0
1.130680194163798 0.8009104211039757 0.0
1.099347083827048 0.8243335727704395 0.0
1.066684425336412 0.8458643604021228 0.0
1.03283497048792 0.8654772531176074 0.0
0.9979492572630678 0.8831824104874066 0.0
0.9621749986495024 0.8990166556695112 0.0
0.9256475378616493 0.9130272060048579 0.0
0.8884846540507749 0.9252538945090274 0.0
0.8507866567183312 0.935715378288671 0.0
0.8126405010322847 0.9444016349017643 0.0
0.7365055179612304 0.9396161853607135 0.0
0.699310855231089 0.9266666891603924 0.0
0.6626179171945521 0.9123577070090924 0.0
0.6264901449910028 0.8966765244755546 0.0
0.5909789825447118 0.8796450886595113 0.0
0.556124897941028 0.8613059841617771 0.0
0.5219601957009091 0.8417124664434518 0.0
0.4885110616878257 0.8209207172498462 0.0
0.4558007060429968 0.7989848675704875 0.0
0.4238520247653796 0.775953675763176 0.0
0.3926900138417566 0.7518687036338616 0.0
0.3623437622133722 0.7267636709390595 0.0
0.3328479550295906 0.7006647540504483 0.0
0.3042438201183181 0.6735915983461908 0.0
0.2765795358619001 0.6455588748284606 0.0
0.2499101143933102 0.6165781952942546 0.0
0.2242967982692083 0.5866601984136335 0.0
0.1998060807431611 0.5558166834807132 0.0
0.1765083808984156 0.5240625786010467 0.0
0.154476512720734 0.491417660368959 0.0
0.133784033184808 0.457907916333494 0.0
0.114503564227142 0.4235664945146766 0.0
0.09670517293008124 0.3884342245925089 0.0
0.0804548910754031 0.3525597611689231 0.0
0.06581337946329963 0.3159993090744527 0.0
0.05283482490365372 0.2788161107032479 0.0
0.0415660226296666 0.2410796291505872 0.0
0.03204569406625649 0.2028646095712164 0.0
0.5272009874003867 0.6419624505772817 0.0
0.7421848286576707 0.7716726266421574 0.0
0.8789503364783713 0.7829234141383637 0.0
0.6149390992905563 0.7449438030688011 0.0
0.4064556042659638 0.5942834991165423 0.0
0.9875021850865396 0.7666507358101158 0.0
0.3188065960661005 0.539594034984892 0.0
0.61365100263957 0.6399487878797632 0.0
0.8049090660915541 0.8464379870891131 0.0
0.7099820328572021 0.6828840522539854 0.0
0.5239467234991928 0.7406922291088611 0.0
0.8154056325591208 0.7211774015928547 0.0
0.6676178829014909 0.8152713180209475 0.0
0.4416080359619968 0.674360953773491 0.0
0.489443615375965 0.5654986742123573 0.0
1.076665773779852 0.7387182918829318 0.0
0.250390543112057 0.4877450112830265 0.0
0.5736819937919005 0.5790366884881447 0.0
0.7263706755366466 0.8615301097563091 0.0
0.940143307772686 0.8233944909985552 0.0
0.927065543677544 0.7236459161626674 0.0
0.8744389806957806 0.8609114380468947 0.0
0.336888362650554 0.6081958070931937 0.0
0.2030757334857187 0.4383942902513459 0.0
0.3861483329720647 0.5255533415902591 0.0
0.5621001921466506 0.7923778419149285 0.0
0.6822897332295245 0.7428043323059399 0.0
0.5764061681675353 0.6881266532454204 0.0
1.129195449682892 0.7163224153578123 0.0
0.8157794419559141 0.7831214907157077 0.0
0.3806644703311284 0.6554275822782399 0.0
0.7695737871052837 0.669593045341503 0.0
0.4699375460410929 0.6217118815516158 0.0
0.6830867370872363 0.630350317562806 0.0
1.040416897214502 0.7929392348941093 0.0
0.4604428393605979 0.7321209818568342 0.0
0.8729552856459739 0.7015083313474691 0.0
1.017010765275644 0.7166925631396708 0.0
0.6458785458483771 0.6946878992565794 0.0
0.7733575582969163 0.8941098392103913 0.0
0.4457537579383052 0.5273353624588528 0.0
0.163830623786951 0.3903175742448083 0.0
0.6095823984734953 0.8256600013628639 0.0
0.2618074352614998 0.5435604438425528 0.0
0.6287880420949764 0.5875838132975476 0.0
0.3100402147222924 0.4835410260423071 0.0
0.5422177893302824 0.5343158927797464 0.0
0.9964262112680041 0.8213447667248638 0.0
0.4971609598823845 0.6906859160718212 0.0
0.5740517260168769 0.633982031239429 0.0
0.7423299505107201 0.7218768583704394 0.0
0.767147744476665 0.819658485932403 0.0
0.9427329070375209 0.7774595780066723 0.0
0.8375285793481674 0.8869398470561132 0.0
0.2879426409425497 0.5872676364411625 0.0
0.6797562629663748 0.8647676397847667 0.0
1.171674168522591 0.6949964056806914 0.0
0.5261010885606964 0.6055079299963303 0.0
0.7081534744446967 0.8078672678314597 0.0
0.9681672688626206 0.705385299758921 0.0
0.7364069054947873 0.6432919177737106 0.0
0.363826821075015 0.5678764295233764 0.0
0.826170216989844 0.6605791783255148 0.0
0.1284439337099834 0.3602715082199688 0.0
0.518140828090112 0.783905985497134 0.0
0.8452908336054504 0.8167586152211004 0.0
0.2015204468558833 0.492088055688788 0.0
0.4005883523205732 0.7121294304856254 0.0
0.3551392316798573 0.4864133323669936 0.0
0.2501727034998737 0.4443035857235296 0.0
0.857938396055507 0.7390317828783199 0.0
0.9245301815433076 0.8668102132501951 0.0
0.5702050292970205 0.7323438487067678 0.0
1.111607633075016 0.759318252473435 0.0
0.6317193755596126 0.7853891653733797 0.0
0.7921381265818805 0.7497379312370454 0.0
1.088942426366261 0.7015435214091311 0.0
0.5818207607488639 0.5352340257544296 0.0
0.4203532416309484 0.6369649631143086 0.0
0.4854818714173937 0.5131439318707094 0.0
0.4475429831528036 0.5690430472086269 0.0
0.8968753306595262 0.8225547516037004 0.0
0.6339557898063448 0.8543470494763272 0.0
0.3416564411796998 0.6516449771136894 0.0
1.082970576264455 0.7856036465430698 0.0
0.2255204648032354 0.5229464838393291 0.0
0.7335043541589261 0.9012744999286941 0.0
0.9097052989734319 0.6921177492721042 0.0
0.5363428275528405 0.6992389299864537 0.0
0.9657777897300287 0.8588269742066746 0.0
1.025947476617909 0.7556651119714124 0.0
0.1090829970454354 0.3226173037985549 0.0
0.4836644525169279 0.7663103281018557 0.0
0.6910856326166581 0.777867529208468 0.0
0.6694391877434097 0.5946719355048008 0.0
0.2954883530575775 0.4501042133334518 0.0
0.6746032498128595 0.6643957640016517 0.0
1.054636636429828 0.6974583960183274 0.0
0.8939255235163368 0.7470597914537064 0.0
0.3749741568555516 0.6190655430398917 0.0
1.204101441114554 0.6801433534918062 0.0
0.6130053345415899 0.6785345531932346 0.0
0.7679719108452487 0.8562682874000032 0.0
0.9710820219997449 0.8008372590855476 0.0
0.1608022352294362 0.4242591696906621 0.0
0.2865399820604418 0.5141369963640697 0.0
0.1962258775846918 0.4008383427744516 0.0
0.6210920174972845 0.5516143721732873 0.0
0.4843009180093644 0.6583977883024127 0.0
0.5695029195102991 0.8267073580550881 0.0
0.9562891163300477 0.7436031251145003 0.0
0.4174190173896447 0.5044019081507806 0.0
0.410860431802698 0.5535781448116232 0.0
0.8709320861791604 0.9002602580953145 0.0
0.427354757192076 0.7399041791280969 0.0
0.7107884943357746 0.7172753954970394 0.0
1.030382288537246 0.8267335242583146 0.0
0.7737440530215844 0.7115751739064536 0.0
0.8042035044852396 0.9123190309183211 0.0
0.0480920891272324 0.2181807374272496 0.0
0.3695079235280397 0.6886893012630373 0.0
0.773516204411121 0.7830673827025234 0.0
0.302776671534508 0.6210168062901616 0.0
0.7150573728414059 0.6149413270404035 0.0
0.5863276441271683 0.769748656022605 0.0
1.143752049005473 0.6780480059671409 0.0
0.6477132714923303 0.7318578097016951 0.0
0.8380052680878572 0.8531154611905379 0.0
0.5966224054445893 0.6051703156405629 0.0
0.3207240819522855 0.5772784374275386 0.0
0.3520131451607586 0.5263918604440553 0.0
0.8573528491808811 0.6709738722470224 0.0
0.1797236573643203 0.460867988842514 0.0
0.5540828191547277 0.6661566975721369 0.0
1.158039843450239 0.7357536542887966 0.0
0.08638006908591334 0.286237566592474 0.0
0.790861820497242 0.6466611559014377 0.0
0.5362079962218838 0.8121454698907893 0.0
0.9405172130232713 0.6862060282668497 0.0
0.6039359324506977 0.711463595189489 0.0
0.4440093493753478 0.6096873538428137 0.0
0.5500746279087338 0.7620941994763282 0.0
0.2578504496023611 0.5739900063885278 0.0
0.502526452350101 0.6209820553182169 0.0
0.6799833858912959 0.7033681517905728 0.0
0.7183487148906835 0.7518430858176317 0.0
0.8006701240044786 0.8118713608014352 0.0
0.1304684854221093 0.3934039266496895 0.0
1.00789495394612 0.7937868725857601 0.0
0.696960396255943 0.893370944718147 0.0
0.8258315165019564 0.7538365084989149 0.0
0.8462950259502577 0.775614153529746 0.0
0.4082018839227037 0.6749460331934272 0.0
0.7025889307788081 0.8378536687159448 0.0
0.4666676520109517 0.6984557076050861 0.0
[...]
POINT_DATA 531

VECTORS Velocity float
0.0000000000000000 1.0000000000000000 0.0
0.0000000000000000 1.0000000000000000 0.0
2.6381798996519272 -0.9593352468066492 0.0
1.7836510339005693 1.0227386134513079 0.0
0.0000000000000000 1.0000000000000000 0.0
0.0000000000000000 1.0000000000000000 0.0
0.0000000000000000 1.0000000000000000 0.0
0.0000000000000000 1.0000000000000000 0.0
0.0000000000000000 1.0000000000000000 0.0
0.0000000000000000 1.0000000000000000 0.0
0.0000000000000000 1.0000000000000000 0.0
0.0000000000000000 1.0000000000000000 0.0
0.0000000000000000 1.0000000000000000 0.0
0.0000000000000000 1.0000000000000000 0.0
0.0000000000000000 1.0000000000000000 0.0
0.0000000000000000 1.0000000000000000 0.0
0.0000000000000000 1.0000000000000000 0.0
0.0000000000000000 1.0000000000000000 0.0
0.0000000000000000 1.0000000000000000 0.0
0.0000000000000000 1.0000000000000000 0.0
0.0000000000000000 0.0000000000000000 0.0
0.0000000000000000 0.0000000000000000 0.0
0.0000000000000000 0.0000000000000000 0.0
0.0000000000000000 0.0000000000000000 0.0
0.0000000000000000 0.0000000000000000 0.0
0.0000000000000000 0.0000000000000000 0.0
0.0000000000000000 0.0000000000000000 0.0
0.0000000000000000 0.0000000000000000 0.0
0.0000000000000000 0.0000000000000000 0.0
0.0000000000000000 0.0000000000000000 0.0
0.0000000000000000 0.0000000000000000 0.0
0.0000000000000000 0.0000000000000000 0.0
0.0000000000000000 0.0000000000000000 0.0
0.0000000000000000 0.0000000000000000 0.0
0.0000000000000000 0.0000000000000000 0.0
0.0000000000000000 0.0000000000000000 0.0
0.0000000000000000 0.0000000000000000 0.0
0.0000000000000000 0.0000000000000000 0.0
0.0000000000000000 0.0000000000000000 0.0
2.6783013056578153 -1.7943115892661006 0.0
3.6709046597918111 -2.3038367638709421 0.0
3.7612782444781643 -2.2277667262806964 0.0
3.7610748975330006 -1.9732543219296657 0.0
3.8427473462118291 -1.7518354103821316 0.0
3.9285618789539281 -1.4394480278147783 0.0
3.9722233370103570 -1.2689372545797186 0.0
4.0668289907849600 -1.0317305003927559 0.0
4.0089257647360430 -0.7183243146462903 0.0
3.9738660225538927 -0.4505950123151518 0.0
3.8361119371105232 -0.1637765187004454 0.0
3.6256046481366933 0.1196999552582750 0.0
3.4564723008016331 0.3418772283242160 0.0
3.1321277119465663 0.5708143011493966 0.0
2.5579352928895047 1.0866839026565225 0.0
1.7651574393792335 0.9494261534942842 0.0
0.0000000000000000 0.0000000000000000 0.0
0.0000000000000000 0.0000000000000000 0.0
0.0000000000000000 0.0000000000000000 0.0
0.0000000000000000 0.0000000000000000 0.0
0.0000000000000000 0.0000000000000000 0.0
0.0000000000000000 0.0000000000000000 0.0
0.0000000000000000 0.0000000000000000 0.0
0.0000000000000000 0.0000000000000000 0.0
0.0000000000000000 0.0000000000000000 0.0
0.0000000000000000 0.0000000000000000 0.0
0.0000000000000000 0.0000000000000000 0.0
0.0000000000000000 0.0000000000000000 0.0
0.0000000000000000 0.0000000000000000 0.0
0.0000000000000000 0.0000000000000000 0.0
0.0000000000000000 0.0000000000000000 0.0
0.0000000000000000 0.0000000000000000 0.0
0.0000000000000000 0.0000000000000000 0.0
0.0000000000000000 0.0000000000000000 0.0
0.0000000000000000 0.0000000000000000 0.0
0.0000000000000000 0.0000000000000000 0.0
0.0000000000000000 0.0000000000000000 0.0
0.0000000000000000 0.0000000000000000 0.0
0.0000000000000000 0.0000000000000000 0.0
0.0000000000000000 0.0000000000000000 0.0
0.0000000000000000 0.0000000000000000 0.0
0.0000000000000000 0.0000000000000000 0.0
0.0000000000000000 0.0000000000000000 0.0
0.0000000000000000 0.0000000000000000 0.0
3.9276278039140555 2.5886015894249983 0.0
4.2467667987861333 2.0612423514310456 0.0
3.9184008808058395 1.1368057546110890 0.0
3.8325248781407359 2.2053071384406939 0.0
3.8053946016718823 2.9206762918793623 0.0
3.5111166005917003 0.1160090384540283 0.0
3.9054676095194258 3.4835311729615865 0.0
3.7203884424721907 2.4358632392810589 0.0
3.7033264024762724 1.8643627122713642 0.0
3.5635404962277346 1.7112997980582965 0.0
2.8792321329920929 1.8447293306033326 0.0
3.4165202247024249 1.3458181061213998 0.0
3.2652123710879075 1.6775986693775835 0.0
3.1661342744857262 2.3700967878998433 0.0
3.2628695972467838 2.4865177924048925 0.0
3.0707434245512917 -0.4639403351856529 0.0
3.6089530724661318 3.8505360368596135 0.0
2.5138579339607934 2.1210463798784085 0.0
2.9568276800967257 1.4028952255887193 0.0
3.8618994011160006 0.5449877536655376 0.0
2.4644448503166796 0.3815752691553270 0.0
3.5955569002188517 1.1845890007872895 0.0
2.8034178434584942 2.6446661459817897 0.0
3.4917009525097886 4.5880585556123155 0.0
3.6217955488649713 2.6417902257837924 0.0
2.3233843360006383 1.3671949990081449 0.0
4.2894124614043694 2.2903476039796509 0.0
3.9628090080328842 2.5716735119158214 0.0
2.8755663676304359 -0.7837091628547663 0.0
4.0852698976197876 1.7209839197035266 0.0
2.5266035488775733 2.0552029534212570 0.0
2.5802437275000645 1.0601400867107094 0.0
3.8861252536800412 2.7147639437805302 0.0
2.7074720812786310 1.3520391022439751 0.0
3.8133445230695275 -0.3524792284811195 0.0
2.0148890794054126 1.4720411484584570 0.0
2.3466088066784732 0.6306159019618305 0.0
2.1859879017669028 0.0629626382985210 0.0
4.1086700372997855 2.4409637948801373 0.0
2.6326635491899513 1.6989973028994430 0.0
2.7970497774339718 2.4464048670530230 0.0
2.9347751883652164 4.7381187663772657 0.0
2.4256494584404265 1.2942382618942478 0.0
2.5253396934452463 2.8831989224535173 0.0
2.1821207531237485 1.6604098143868760 0.0
3.2823272677644639 3.5022523293867400 0.0
1.8380217215124781 1.7708156182137957 0.0
3.9113667908023810 -0.0248901865421307 0.0
3.5010416132612359 2.2963161307792448 0.0
3.8115883556929133 2.5546280706268787 0.0
3.9779902922448840 1.9280026839204969 0.0
4.0101572529307292 2.0161308114130723 0.0
3.6788613982499534 0.4710168504772661 0.0
3.0564679184614931 1.5448751469773512 0.0
1.6478630127242884 1.6817459475155732 0.0
2.3116183579096088 1.0937487086898998 0.0
2.8738656589739469 -1.0381925115501611 0.0
3.6814948206293834 2.5401653776674955 0.0
3.8853414788801190 1.9575231958339070 0.0
1.5158810446268320 0.0886737661302808 0.0
2.0235734377947496 1.0793101269411884 0.0
3.7301892991531198 3.1742176541468905 0.0
1.1595784473486463 0.4526251382008636 0.0
1.8313836925397486 3.2599792142666710 0.0
1.5196277122496966 0.8855423456110768 0.0
3.9299928672158408 1.4996703258586010 0.0
1.8405104466363262 2.2642719406297194 0.0
1.1112949528779097 0.7445823227654135 0.0
2.1168270961595441 2.3898474735414625 0.0
2.7840589668633191 3.3824167635007760 0.0
3.4189167509859391 1.0812241601148578 0.0
3.6910907966562925 0.6613865578985515 0.0
3.5855128037919797 2.2526702195479609 0.0
3.7598104574753703 -1.0879837468184950 0.0
3.3390493741340683 1.7922072963858169 0.0
4.0230138260209340 1.7173243830275391 0.0
1.6768054270297335 -0.3254703597025104 0.0
1.4287070051383284 1.5169475113022721 0.0
3.4395126785455004 2.6080555334731010 0.0
1.2902854044308498 1.7972506851791297 0.0
3.5885376940238634 2.7292417149219648 0.0
3.8628326178734005 1.0424337456922732 0.0
1.5134821029082277 0.8010822027718162 0.0
1.3764355200014948 1.3181418259422994 0.0
3.8964807669487840 -0.8512842803410585 0.0
1.8248107102563325 1.8435791104729633 0.0
1.5423634379458435 0.8508841078137851 0.0
1.3414189909445038 0.1623740662411372 0.0
3.6988939937923524 2.3775782481854670 0.0
3.8618934346863427 0.2055235767899637 0.0
3.2190882590719401 -0.2547586897314761 0.0
1.5934202054047961 3.1018883296319730 0.0
1.2250838911562647 1.0408974013204928 0.0
4.0945950925477232 2.1080577328495638 0.0
1.3201638971429650 0.8021924891374069 0.0
1.5282989995586957 2.7801894457020313 0.0
3.6371053805790852 2.0736900595719567 0.0
1.3765419566968440 -0.2587225046893532 0.0
3.4245529202738276 0.7973946391857856 0.0
3.1607439191275795 2.5133329682213317 0.0
2.6870969033013679 -1.4052072164552571 0.0
4.0204795482888649 2.5782258657332311 0.0
3.4362853202317027 1.9121209330936804 0.0
3.8105625621910555 0.2503221266824915 0.0
2.0001107783875325 3.0559164691393841 0.0
3.6245581682732730 3.6765882780043899 0.0
2.4431688480671090 4.0337719165334356 0.0
0.8555457096954089 0.8140623034353126 0.0
3.7303238911339776 2.5546880360759130 0.0
1.1050686938343171 0.5839596986778790 0.0
2.9777710856668720 0.2745344599301603 0.0
2.1138718382916557 2.2054667277822575 0.0
3.5851041813746778 2.8342379813466838 0.0
3.0384375736095492 1.0362554338720094 0.0
0.8488448138996826 0.6141716792339060 0.0
4.1191508391541660 1.9984371471330720 0.0
4.0105786090568785 -0.3646910065192576 0.0
3.5804008426555307 1.5896204031245498 0.0
2.2819980382590503 1.5662262435765451 0.0
0.7641786046716215 3.4574472075105565 0.0
0.9987212096965123 0.8627359528770557 0.0
4.1942489805074716 1.9258456612391524 0.0
1.3081575617464880 1.0460938685641683 0.0
1.2242107382975265 0.4747392634915753 0.0
3.1786024200032825 1.8821451076205107 0.0
1.4211037917325786 -0.2928800218907813 0.0
4.2136509022847388 2.4107177133862105 0.0
3.6699852027081450 1.6136108075147577 0.0
3.1435103933737927 2.2188688748309882 0.0
2.8969699588886195 3.0094740969392100 0.0
3.9218148168837836 3.2645986455692855 0.0
1.0090196120745145 0.3100074311951915 0.0
1.7261177220446668 2.4099731948825145 0.0
3.9912923442977326 2.5404010685368514 0.0
3.6887005389055152 -1.3767922423627998 0.0
1.2131520308540298 3.3076048303802934 0.0
1.1925887100852235 0.4827680819125618 0.0
0.9857620885659044 0.3934666110248909 0.0
0.9656570372936044 0.0568031433057606 0.0
4.0662806912759937 2.4490319133182417 0.0
3.8097266187800867 2.8398647584677361 0.0
2.8056452410248394 1.6624931963004477 0.0
1.0317347268899364 1.4871931682189556 0.0
3.9039910487731477 2.6333583748256566 0.0
4.1081277715789479 2.3121490130591109 0.0
4.2582251839721375 2.1356245130935476 0.0
4.0288898375082374 1.8358549311145989 0.0
1.6335832660828336 2.3202030265553684 0.0
3.8023216596524301 -0.0954073200846930 0.0
1.2535149342469873 0.6247155817642250 0.0
3.8787200356086391 1.4873949683175129 0.0
3.9442168519183514 1.3643480571489388 0.0
2.5725967060442341 1.7821280372196904 0.0
3.1192875081346143 1.5094241940247812 0.0
3.0842456846284247 2.1143351981163385 0.0
3.0499423351666213 1.9405150808807066 0.0
3.3636391688952232 1.7248675635098476 0.0
3.9983031199095374 2.2377294028354076 0.0
1.1143400199793612 0.1588443167725098 0.0
2.8718644570774350 2.1186549281602161 0.0
2.5094384794223932 0.8602990214523105 0.0
2.7696623838658518 2.0212602419548698 0.0
2.5376982585558330 -0.0158515415030194 0.0
4.0660509661620816 -0.6630162310518111 0.0
0.9402392279812428 0.9579008352606053 0.0
2.3131031426458653 -1.0760552587997243 0.0
3.9949859376054069 2.5716238318987221 0.0
2.8389063162065078 1.4273434172853963 0.0
3.1029438693376994 1.7993141833155117 0.0
3.4912582403297150 3.9783439653919928 0.0
0.5352132850474591 1.6424814085931876 0.0
3.7245168776035498 2.7253412790414036 0.0
1.5428059918191837 1.8400143321260285 0.0
2.9438581399806574 -0.6722196198317042 0.0
3.8001680913650513 0.8187368040331258 0.0
3.5826099268850746 2.4572902122456628 0.0
0.6505636476220464 0.5175017563857610 0.0
1.1993196153471271 2.2395803070412872 0.0
3.1062515896000722 2.7575526793232625 0.0
1.7180387076875312 2.9228240091404829 0.0
1.0160711629301100 1.8881751542003975 0.0
0.8278774958763189 1.5826800758532507 0.0
1.6637739459981571 3.0813970317698471 0.0
1.4563452240442101 1.1752984512696474 0.0
2.1902291492453458 -1.4150005403082149 0.0
2.1429312195946113 1.6064865826191035 0.0
0.6903054354407515 0.3013750526928013 0.0
0.7719833598829021 0.5864663167200054 0.0
3.9136635336235015 3.4641237983971638 0.0
1.2809926260765010 -0.0746327669391796 0.0
3.2772552865915721 0.8320012634428964 0.0
3.9428800286116052 -0.0920797213191858 0.0
3.8438497299029151 2.3818952131400342 0.0
1.1250736917565380 3.3292141297605657 0.0
2.6406219513411213 0.6991813402061005 0.0
0.6165242809060095 0.3725630741421502 0.0
3.5016889311862029 -0.4152017973315998 0.0
3.6662568036163670 2.6545312500006286 0.0
0.7927872466790636 -0.0106677124397237 0.0
2.6609207336973588 -0.2312802228694313 0.0
2.7178576369126182 1.4604100987097355 0.0
3.6939931586021646 -1.7233240426850855 0.0
0.8498589433895616 0.1093119583356303 0.0
2.4940986110923609 1.5684186640001365 0.0
2.8582453008920075 2.4017218190574319 0.0
2.2350338993627568 1.9493572270878341 0.0
3.8665671086966116 2.5310412333360146 0.0
3.7781596321989275 1.8949966884857656 0.0
2.5637217634457059 1.0983934509089670 0.0
3.7067858402134672 3.7871276092092554 0.0
4.1474101524068319 2.0460682883884713 0.0
0.9540535045130817 0.6012523334347921 0.0
3.1437868383655601 3.2391482102876221 0.0
2.7474481859318383 1.6552074848488048 0.0
4.1853962545289480 2.1375835078922867 0.0
4.1164934555568609 1.9437884828589929 0.0
3.0839490566548764 2.2001836064231908 0.0
3.7082218190850291 2.5578075370876525 0.0
1.2638376279432959 -0.7684672540378922 0.0
3.3913101853444068 0.6524678651655871 0.0
3.8985859007848420 0.1892808472829144 0.0
1.6698465211154412 4.0683848468467687 0.0
2.2698594690057865 1.8841726516697739 0.0
0.7177929146304841 0.6031799483968421 0.0
3.9429924205647096 2.5787559990079512 0.0
4.2401946863954327 2.0691691700276920 0.0
3.9178218053884484 1.1560930676393641 0.0
3.8033097825191908 2.1878533247790646 0.0
3.8132219494820641 2.9046614121142964 0.0
3.5118848529444078 0.1272602492034029 0.0
3.9091148663380633 3.4762928675550571 0.0
3.7556299370761193 2.4564120759875228 0.0
3.6681727627142693 1.8759641731804435 0.0
3.6034341298401142 1.7349177026090277 0.0
2.8437303618223608 1.8159581008907828 0.0
3.4495069907765874 1.3658677711628606 0.0
3.2221480428009808 1.6597896223724833 0.0
3.1468776408280688 2.3403142415818041 0.0
3.2959830629238911 2.4826522811327254 0.0
3.0711493737948303 -0.4626975798583092 0.0
3.6092514704700638 3.8500928730387569 0.0
2.5512107157891069 2.1344551282381752 0.0
2.9168025707028460 1.3942658974065512 0.0
3.8498801165897056 0.5583452763604333 0.0
2.4810270228451690 0.3918547889198409 0.0
3.5708244630402626 1.1954415760087769 0.0
2.7999842816344840 2.6316136180636298 0.0
3.4915872108180337 4.5881450542765183 0.0
3.6340975607772914 2.6379692117096041 0.0
2.2840710082626670 1.3442795965601397 0.0
4.2896121743221300 2.2936628156376306 0.0
3.9582170963649430 2.5616739588795525 0.0
2.8754726154815411 -0.7839011060492475 0.0
4.0813148729247049 1.7412700002267911 0.0
2.5141447869784983 2.0348964013140862 0.0
2.6197928480986734 1.0779025590429805 0.0
3.8978760122754568 2.6963750815263277 0.0
2.7509753564164665 1.3748626859649298 0.0
3.8120465665616030 -0.3483899967161209 0.0
1.9858367425750629 1.4482125118605935 0.0
2.3750045926321013 0.6410167732744138 0.0
2.1894629817137661 0.0670255365779569 0.0
4.1269401156487486 2.4526920280284892 0.0
2.6013478935867802 1.6975242109751958 0.0
2.8203759616853801 2.4457407322209104 0.0
2.9347382970225704 4.7381439214822967 0.0
2.3863035441237122 1.2736903035952931 0.0
2.5258661118124981 2.8815905157706139 0.0
2.2191433712752056 1.6858951869335108 0.0
3.2842758595217609 3.5013553946841447 0.0
1.8700184395521127 1.7755903121482151 0.0
3.9048532214503129 -0.0173301358058765 0.0
3.4760018405300697 2.2677352216756272 0.0
3.8407316289797682 2.5597263938725372 0.0
4.0067687473397084 1.9449104630566227 0.0
3.9774945680875939 2.0214700726568515 0.0
3.6769432672510440 0.4854659001778592 0.0
3.0342535933758921 1.5498343038334836 0.0
1.6465954917121433 1.6779216657732043 0.0
2.2734620399263972 1.0791572194159718 0.0
2.8737945887986158 -1.0383765697100129 0.0
3.7107706641173106 2.5399080047811653 0.0
3.8475987039158164 1.9465348187116494 0.0
1.5257397136946054 0.0950939541888201 0.0
2.0592865799208848 1.0972466069903128 0.0
3.7355429715513173 3.1627345483615410 0.0
1.1831900958339607 0.4619819331097424 0.0
1.8313760761033024 3.2599899138575066 0.0
1.4914533175112670 0.8674673866668248 0.0
3.9097340658076383 1.5173911670887434 0.0
1.8406198274010424 2.2644798691016579 0.0
1.0965340837346005 0.7314986130556108 0.0
2.1227555907661912 2.3884269861068810 0.0
2.7839012632239846 3.3822730718003511 0.0
3.4402757984803207 1.1000786079835179 0.0
3.6766962056988657 0.6696740849174688 0.0
3.5564950900047863 2.2283814741844443 0.0
3.7601285960805777 -1.0881876126361272 0.0
3.2971687984978795 1.7716389146232534 0.0
4.0406723682584778 1.7361906615105676 0.0
1.6764312447452587 -0.3253700955781955 0.0
1.4547403643146137 1.5279542387356746 0.0
3.4335970934112230 2.5847877337316776 0.0
1.3102350631710720 1.7987813181040191 0.0
3.6104750538283517 2.7191836206147437 0.0
3.8463132168617324 1.0598905739614908 0.0
1.4836480123136775 0.7863395637021987 0.0
1.3692809219824209 1.3069882037476661 0.0
3.8967473940341111 -0.8503423548863625 0.0
1.8250765783060252 1.8434238107895393 0.0
1.5197728796842189 0.8468752168370066 0.0
1.3578863194542106 0.1686491523506979 0.0
3.6759832942908472 2.3548388217713225 0.0
3.8534377890451390 0.2112467638020171 0.0
3.2203514769994599 -0.2479883244966667 0.0
1.5934199387631240 3.1018871207269028 0.0
1.2007544779412709 1.0198285391886313 0.0
4.0673297190357180 2.1004792784302246 0.0
1.3495517135210278 0.8194589523517521 0.0
1.5284998450272314 2.7801062006718187 0.0
3.6774221428240845 2.0964642011487462 0.0
1.3770500732608597 -0.2574949227600449 0.0
3.4355070562828942 0.8146366091421772 0.0
3.1575703915202351 2.4932257435242469 0.0
2.6870905211890239 -1.4052432586557062 0.0
4.0373756031268337 2.5858917972402939 0.0
3.3962771648853636 1.9115502046239450 0.0
3.8049095714934609 0.2611647454236645 0.0
2.0000896850756282 3.0560295689024510 0.0
3.6261990991181166 3.6741099706063802 0.0
2.4430519353913960 4.0337986821914855 0.0
0.8752255594199239 0.8300712437287457 0.0
3.7234129634232880 2.5298739234491316 0.0
1.0802516577450323 0.5711227833876427 0.0
2.9862573477118644 0.2859496863652768 0.0
2.1280188522057295 2.2053496487622506 0.0
3.6023724339968477 2.8257769776151975 0.0
3.0230087988485415 1.0421112306042901 0.0
0.8332422725563997 0.6013195425166519 0.0
4.1447820252714500 2.0150056077296981 0.0
4.0077155955312396 -0.3615783829501356 0.0
3.6161044422421540 1.6098951986121928 0.0
2.2650007129202478 1.5669768580964694 0.0
0.7641786046716216 3.4574472075105565 0.0
0.9880404975608029 0.8505304183382651 0.0
4.1851661979025065 1.9391426028689196 0.0
1.3054217308901650 1.0408371015109104 0.0
1.2532039548405909 0.4874931253437160 0.0
3.1368109798832080 1.8578114875480607 0.0
1.4208438135958936 -0.2929189671250636 0.0
4.2105685192378726 2.4113501144115590 0.0
3.6378586890954097 1.6241489804475178 0.0
3.1839691568223514 2.2386079364582070 0.0
2.8953459808121709 2.9996988370906221 0.0
3.9303992685928830 3.2598219224453380 0.0
1.0289935755418880 0.3166931382688059 0.0
1.7261658414145222 2.4101745801546004 0.0
3.9963236933176360 2.5317878161459495 0.0
3.6888487487303405 -1.3770865520412157 0.0
1.2131526463279212 3.3076048200228074 0.0
1.2182140808124970 0.4937952007257358 0.0
0.9614098659772143 0.3827454655168821 0.0
0.9781327024448253 0.0602035615393261 0.0
4.0599746734116389 2.4402321244578502 0.0
3.8208534294692336 2.8196795604526113 0.0
2.7663282023661178 1.6364973560620439 0.0
1.0313602721674571 1.4851938604172543 0.0
3.9200472809745532 2.6189528195801084 0.0
4.1313545966762950 2.3274290886676336 0.0
4.2624865643499108 2.1424831086435296 0.0
4.0036983299053048 1.8501725416805412 0.0
1.6335698458874486 2.3202385673739019 0.0
3.7996710624417704 -0.0867557278230987 0.0
1.2311374738742726 0.6162008747368266 0.0
3.8938312083857105 1.5079548907546609 0.0
3.9450386758367997 1.3875226100961366 0.0
2.5553157852353650 1.7601503339057729 0.0
3.0766044000439003 1.4985083890651179 0.0
3.0582130226720730 2.0856143306789732 0.0
3.0941282662765470 1.9667278952858975 0.0
3.4052882940897784 1.7452677236017937 0.0
3.9679066527062243 2.2268065904065053 0.0
1.1198703794594180 0.1614755893164777 0.0
2.9101904086219506 2.1214600656960045 0.0
2.5429583841771728 0.8765869279500648 0.0
2.7372736549753962 1.9939582117084802 0.0
2.5441384637168625 -0.0075926820773790 0.0
4.0653277736137818 -0.6617258111189268 0.0
0.9402329106867321 0.9573892662406879 0.0
2.3131007193691011 -1.0760523836527467 0.0