# vtk DataFile Version 3.0
LucasCarvalhoTCC Results
ASCII

DATASET POLYDATA
FIELD FieldData 1
TIME 1 1 double
3.5

POINTS 531 float
0.02430399999999999 0.16425 0.0
0.5913384 0.481878 0.0
1.30475 0.591832 0.0
0.774126 0.951272 0.0
0.04779564148251592 0.1966194329439859 0.0
0.0726092153537953 0.2279866320496896 0.0
0.09876577335895967 0.2582426022760065 0.0
0.1262817198684718 0.2872673048853742 0.0
0.1551671626852806 0.3149288071400502 0.0
0.1854238368919928 0.3410826624766006 0.0
0.2170424591499632 0.3655716640299072 0.0
0.2499995164635996 0.3882263409476824 0.0
0.2842534387828506 0.4088665906889567 0.0
0.3197403359862048 0.4273050841371062 0.0
0.3563695945475563 0.4433531534921038 0.0
0.3940201673622058 0.4568300511916809 0.0
0.4325386107291805 0.4675762214989666 0.0
0.4717406913237268 0.4754709112408955 0.0
0.5114182513144845 0.480453442081874 0.0
0.5513531678859215 0.4825464217651069 0.0
0.6182637923774223 0.5096055604109244 0.0
0.647389101376845 0.5350126187545199 0.0
0.6784752958296183 0.5579802184492302 0.0
0.7112421079139344 0.5784810076698811 0.0
0.7454110434104482 0.5965507527581431 0.0
0.7807301979183381 0.6122562812860965 0.0
0.8169827939052532 0.6256694297140926 0.0
0.853985522124928 0.6368498290413532 0.0
0.8915818964261243 0.6458353363890481 0.0
0.9296339776508085 0.6526379336565091 0.0
0.9680139759519513 0.6572432424840469 0.0
1.006596418266983 0.659612648128084 0.0
1.045251165872634 0.6596877658251245 0.0
1.083837680945672 0.657397570658483 0.0
1.122201320191055 0.6526688455666412 0.0
1.160173053543044 0.6454405726452737 0.0
1.197574286953346 0.6356824063786186 0.0
1.23422961949795 0.6234159704281613 0.0
1.26998758503999 0.6087366500005643 0.0
1.285086682927543 0.6256533177085738 0.0
1.263669745906668 0.6583917156018083 0.0
1.240480125919214 0.6898988493917133 0.0
1.215532715641304 0.7200329197235763 0.0
1.188869833862339 0.7486599839005789 0.0
1.160556835593143 0.7756559317113654 0.0
1.130680194163798 0.8009104211039757 0.0
1.099347083827048 0.8243335727704395 0.0
1.066684425336412 0.8458643604021228 0.0
1.03283497048792 0.8654772531176074 0.0
0.9979492572630678 0.8831824104874066 0.0
0.9621749986495024 0.8990166556695112 0.0
0.9256475378616493 0.9130272060048579 0.0
0.8884846540507749 0.9252538945090274 0.0
0.8507866567183312 0.935715378288671 0.0
0.8126405010322847 0.9444016349017643 0.0
0.7365055179612304 0.9396161853607135 0.0
0.699310855231089 0.9266666891603924 0.0
0.6626179171945521 0.9123577070090924 0.0
0.6264901449910028 0.8966765244755546 0.0
0.5909789825447118 0.8796450886595113 0.0
0.556124897941028 0.8613059841617771 0.0
0.5219601957009091 0.8417124664434518 0.0
0.4885110616878257 0.8209207172498462 0.0
0.4558007060429968 0.7989848675704875 0.0
0.4238520247653796 0.775953675763176 0.0
0.3926900138417566 0.7518687036338616 0.0
0.3623437622133722 0.7267636709390595 0.0
0.3328479550295906 0.7006647540504483 0.0
0.3042438201183181 0.6735915983461908 0.0
0.2765795358619001 0.6455588748284606 0.0
0.2499101143933102 0.6165781952942546 0.0
0.2242967982692083 0.5866601984136335 0.0
0.1998060807431611 0.5558166834807132 0.0
0.1765083808984156 0.5240625786010467 0.0
0.154476512720734 0.491417660368959 0.0
0.133784033184808 0.457907916333494 0.0
0.114503564227142 0.4235664945146766 0.0
0.09670517293008124 0.3884342245925089 0.0
0.0804548910754031 0.3525597611689231 0.0
0.06581337946329963 0.3159993090744527 0.0
0.05283482490365372 0.2788161107032479 0.0
0.0415660226296666 0.2410796291505872 0.0
0.03204569406625649 0.2028646095712164 0.0
0.5272009874003867 0.6419624505772817 0.0
0.7421848286576707 0.7716726266421574 0.0
0.8789503364783713 0.7829234141383637 0.0
0.6149390992905563 0.7449438030688011 0.0
0.4064556042659638 0.5942834991165423 0.0
0.9875021850865396 0.7666507358101158 0.0
0.3188065960661005 0.539594034984892 0.0
0.61365100263957 0.6399487878797632 0.0
0.8049090660915541 0.8464379870891131 0.0
0.7099820328572021 0.6828840522539854 0.0
0.5239467234991928 0.7406922291088611 0.0
0.8154056325591208 0.7211774015928547 0.0
0.6676178829014909 0.8152713180209475 0.0
0.4416080359619968 0.674360953773491 0.0
0.489443615375965 0.5654986742123573 0.0
1.076665773779852 0.7387182918829318 0.0
0.250390543112057 0.4877450112830265 0.0
0.5736819937919005 0.5790366884881447 0.0
0.7263706755366466 0.8615301097563091 0.0
0.940143307772686 0.8233944909985552 0.0
0.927065543677544 0.7236459161626674 0.0
0.8744389806957806 0.8609114380468947 0.0
0.336888362650554 0.6081958070931937 0.0
0.2030757334857187 0.4383942902513459 0.0
0.3861483329720647 0.5255533415902591 0.0
0.5621001921466506 0.7923778419149285 0.0
0.6822897332295245 0.7428043323059399 0.0
0.5764061681675353 0.6881266532454204 0.0
1.129195449682892 0.7163224153578123 0.0
0.8157794419559141 0.7831214907157077 0.0
0.3806644703311284 0.6554275822782399 0.0
0.7695737871052837 0.669593045341503 0.0
0.4699375460410929 0.6217118815516158 0.0
0.6830867370872363 0.630350317562806 0.0
1.040416897214502 0.7929392348941093 0.0
0.4604428393605979 0.7321209818568342 0.0
0.8729552856459739 0.7015083313474691 0.0
1.017010765275644 0.7166925631396708 0.0
0.6458785458483771 0.6946878992565794 0.0
0.7733575582969163 0.8941098392103913 0.0
0.4457537579383052 0.5273353624588528 0.0
0.163830623786951 0.3903175742448083 0.0
0.6095823984734953 0.8256600013628639 0.0
0.2618074352614998 0.5435604438425528 0.0
0.6287880420949764 0.5875838132975476 0.0
0.3100402147222924 0.4835410260423071 0.0
0.5422177893302824 0.5343158927797464 0.0
0.9964262112680041 0.8213447667248638 0.0
0.4971609598823845 0.6906859160718212 0.0
0.5740517260168769 0.633982031239429 0.0
0.7423299505107201 0.7218768583704394 0.0
0.767147744476665 0.819658485932403 0.0
0.9427329070375209 0.7774595780066723 0.0
0.8375285793481674 0.8869398470561132 0.0
0.2879426409425497 0.5872676364411625 0.0
0.6797562629663748 0.8647676397847667 0.0
1.171674168522591 0.6949964056806914 0.0
0.5261010885606964 0.6055079299963303 0.0
0.7081534744446967 0.8078672678314597 0.0
0.9681672688626206 0.705385299758921 0.0
0.7364069054947873 0.6432919177737106 0.0
0.363826821075015 0.5678764295233764 0.0
0.826170216989844 0.6605791783255148 0.0
0.1284439337099834 0.3602715082199688 0.0
0.518140828090112 0.783905985497134 0.0
0.8452908336054504 0.8167586152211004 0.0
0.2015204468558833 0.492088055688788 0.0
0.4005883523205732 0.7121294304856254 0.0
0.3551392316798573 0.4864133323669936 0.0
0.2501727034998737 0.4443035857235296 0.0
0.857938396055507 0.7390317828783199 0.0
0.9245301815433076 0.8668102132501951 0.0
0.5702050292970205 0.7323438487067678 0.0
1.111607633075016 0.759318252473435 0.0
0.6317193755596126 0.7853891653733797 0.0
0.7921381265818805 0.7497379312370454 0.0
1.088942426366261 0.7015435214091311 0.0
0.5818207607488639 0.5352340257544296 0.0
0.4203532416309484 0.6369649631143086 0.0
0.4854818714173937 0.5131439318707094 0.0
0.4475429831528036 0.5690430472086269 0.0
0.8968753306595262 0.8225547516037004 0.0
0.6339557898063448 0.8543470494763272 0.0
0.3416564411796998 0.6516449771136894 0.0
1.082970576264455 0.7856036465430698 0.0
0.2255204648032354 0.5229464838393291 0.0
0.7335043541589261 0.9012744999286941 0.0
0.9097052989734319 0.6921177492721042 0.0
0.5363428275528405 0.6992389299864537 0.0
0.9657777897300287 0.8588269742066746 0.0
1.025947476617909 0.7556651119714124 0.0
0.1090829970454354 0.3226173037985549 0.0
0.4836644525169279 0.7663103281018557 0.0
0.6910856326166581 0.777867529208468 0.0
0.6694391877434097 0.5946719355048008 0.0
0.2954883530575775 0.4501042133334518 0.0
0.6746032498128595 0.6643957640016517 0.0
1.054636636429828 0.6974583960183274 0.0
0.8939255235163368 0.7470597914537064 0.0
0.3749741568555516 0.6190655430398917 0.0
1.204101441114554 0.6801433534918062 0.0
0.6130053345415899 0.6785345531932346 0.0
0.7679719108452487 0.8562682874000032 0.0
0.9710820219997449 0.8008372590855476 0.0
0.1608022352294362 0.4242591696906621 0.0
0.2865399820604418 0.5141369963640697 0.0
0.1962258775846918 0.4008383427744516 0.0
0.6210920174972845 0.5516143721732873 0.0
0.4843009180093644 0.6583977883024127 0.0
0.5695029195102991 0.8267073580550881 0.0
0.9562891163300477 0.7436031251145003 0.0
0.4174190173896447 0.5044019081507806 0.0
0.410860431802698 0.5535781448116232 0.0
0.8709320861791604 0.9002602580953145 0.0
0.427354757192076 0.7399041791280969 0.0
0.7107884943357746 0.7172753954970394 0.0
1.030382288537246 0.8267335242583146 0.0
0.7737440530215844 0.7115751739064536 0.0
0.8042035044852396 0.9123190309183211 0.0
0.0480920891272324 0.2181807374272496 0.0
0.3695079235280397 0.6886893012630373 0.0
0.773516204411121 0.7830673827025234 0.0
0.302776671534508 0.6210168062901616 0.0
0.7150573728414059 0.6149413270404035 0.0
0.5863276441271683 0.769748656022605 0.0
1.143752049005473 0.6780480059671409 0.0
0.6477132714923303 0.7318578097016951 0.0
0.8380052680878572 0.8531154611905379 0.0
0.5966224054445893 0.6051703156405629 0.0
0.3207240819522855 0.5772784374275386 0.0
0.3520131451607586 0.5263918604440553 0.0
0.8573528491808811 0.6709738722470224 0.0
0.1797236573643203 0.460867988842514 0.0
0.5540828191547277 0.6661566975721369 0.0
1.158039843450239 0.7357536542887966 0.0
0.08638006908591334 0.286237566592474 0.0
0.790861820497242 0.6466611559014377 0.0
0.5362079962218838 0.8121454698907893 0.0
0.9405172130232713 0.6862060282668497 0.0
0.6039359324506977 0.711463595189489 0.0
0.4440093493753478 0.6096873538428137 0.0
0.5500746279087338 0.7620941994763282 0.0
0.2578504496023611 0.5739900063885278 0.0
0.502526452350101 0.6209820553182169 0.0
0.6799833858912959 0.7033681517905728 0.0
0.7183487148906835 0.7518430858176317 0.0
0.8006701240044786 0.8118713608014352 0.0
0.1304684854221093 0.3934039266496895 0.0
1.00789495394612 0.7937868725857601 0.0
0.696960396255943 0.893370944718147 0.0
0.8258315165019564 0.7538365084989149 0.0
0.8462950259502577 0.775614153529746 0.0
0.4082018839227037 0.6749460331934272 0.0
0.7025889307788081 0.8378536687159448 0.0
0.4666676520109517 0.6984557076050861 0.0
[...]
POINT_DATA 531

VECTORS Velocity float
0.0000000000000000 1.0000000000000000 0.0
0.0000000000000000 1.0000000000000000 0.0
2.6381791088769120 -0.9593350677060849 0.0
1.7849097214980822 1.0229782394848133 0.0
0.0000000000000000 1.0000000000000000 0.0
0.0000000000000000 1.0000000000000000 0.0
0.0000000000000000 1.0000000000000000 0.0
0.0000000000000000 1.0000000000000000 0.0
0.0000000000000000 1.0000000000000000 0.0
0.0000000000000000 1.0000000000000000 0.0
0.0000000000000000 1.0000000000000000 0.0
0.0000000000000000 1.0000000000000000 0.0
0.0000000000000000 1.0000000000000000 0.0
0.0000000000000000 1.0000000000000000 0.0
0.0000000000000000 1.0000000000000000 0.0
0.0000000000000000 1.0000000000000000 0.0
0.0000000000000000 1.0000000000000000 0.0
0.0000000000000000 1.0000000000000000 0.0
0.0000000000000000 1.0000000000000000 0.0
0.0000000000000000 1.0000000000000000 0.0
0.0000000000000000 0.0000000000000000 0.0
0.0000000000000000 0.0000000000000000 0.0
0.0000000000000000 0.0000000000000000 0.0
0.0000000000000000 0.0000000000000000 0.0
0.0000000000000000 0.0000000000000000 0.0
0.0000000000000000 0.0000000000000000 0.0
0.0000000000000000 0.0000000000000000 0.0
0.0000000000000000 0.0000000000000000 0.0
0.0000000000000000 0.0000000000000000 0.0
0.0000000000000000 0.0000000000000000 0.0
0.0000000000000000 0.0000000000000000 0.0
0.0000000000000000 0.0000000000000000 0.0
0.0000000000000000 0.0000000000000000 0.0
0.0000000000000000 0.0000000000000000 0.0
0.0000000000000000 0.0000000000000000 0.0
0.0000000000000000 0.0000000000000000 0.0
0.0000000000000000 0.0000000000000000 0.0
0.0000000000000000 0.0000000000000000 0.0
0.0000000000000000 0.0000000000000000 0.0
2.6783019783764002 -1.7943145104971101 0.0
3.6709255302204178 -2.3038631240101171 0.0
3.7612329689194683 -2.2278092421663085 0.0
3.7608773078449000 -1.9729291621219536 0.0
3.8413205849713425 -1.7505267258408626 0.0
3.9251951995503416 -1.4367806739689208 0.0
3.9671624286836877 -1.2644982945206746 0.0
4.0587204627972389 -1.0262011033125791 0.0
3.9972619303477144 -0.7112857472524200 0.0
3.9609118588132741 -0.4435639574695003 0.0
3.8233603486462875 -0.1576772046633514 0.0
3.6142886677415751 0.1243424860116735 0.0
3.4472297850067153 0.3455943676805864 0.0
3.1263964886592697 0.5728534889903178 0.0
2.5564037037335168 1.0861231784074161 0.0
1.7675862923378460 0.9496221043997991 0.0
0.0000000000000000 0.0000000000000000 0.0
0.0000000000000000 0.0000000000000000 0.0
0.0000000000000000 0.0000000000000000 0.0
0.0000000000000000 0.0000000000000000 0.0
0.0000000000000000 0.0000000000000000 0.0
0.0000000000000000 0.0000000000000000 0.0
0.0000000000000000 0.0000000000000000 0.0
0.0000000000000000 0.0000000000000000 0.0
0.0000000000000000 0.0000000000000000 0.0
0.0000000000000000 0.0000000000000000 0.0
0.0000000000000000 0.0000000000000000 0.0
0.0000000000000000 0.0000000000000000 0.0
0.0000000000000000 0.0000000000000000 0.0
0.0000000000000000 0.0000000000000000 0.0
0.0000000000000000 0.0000000000000000 0.0
0.0000000000000000 0.0000000000000000 0.0
0.0000000000000000 0.0000000000000000 0.0
0.0000000000000000 0.0000000000000000 0.0
0.0000000000000000 0.0000000000000000 0.0
0.0000000000000000 0.0000000000000000 0.0
0.0000000000000000 0.0000000000000000 0.0
0.0000000000000000 0.0000000000000000 0.0
0.0000000000000000 0.0000000000000000 0.0
0.0000000000000000 0.0000000000000000 0.0
0.0000000000000000 0.0000000000000000 0.0
0.0000000000000000 0.0000000000000000 0.0
0.0000000000000000 0.0000000000000000 0.0
0.0000000000000000 0.0000000000000000 0.0
3.9207470160982258 2.5862073620076935 0.0
4.2408059460270273 2.0539864737879703 0.0
3.9174767437608375 1.1331543763005925 0.0
3.8311988000511863 2.2045159379700969 0.0
3.8037435335238627 2.9203907382294885 0.0
3.5166690789762880 0.1183768762057586 0.0
3.9051915631802143 3.4841442486124392 0.0
3.7158085023929099 2.4349030821202917 0.0
3.6991520660450399 1.8571466780680466 0.0
3.5630657918645041 1.7099508600165789 0.0
2.8826506639287719 1.8483031641977985 0.0
3.4213429847508929 1.3438812271611913 0.0
3.2687398345314622 1.6785378732182379 0.0
3.1665134389534852 2.3722190170525663 0.0
3.2626876312320445 2.4837931220884482 0.0
3.0749930108602763 -0.4612553064097649 0.0
3.6087979225924260 3.8508273823790993 0.0
2.5159230420305838 2.1217888972023218 0.0
2.9612896414652852 1.4033587259130991 0.0
3.8563768098912927 0.5445782922335377 0.0
2.4748554429228409 0.3827107398739883 0.0
3.5890901661499934 1.1805234801143096 0.0
2.8039399586831912 2.6460650858684747 0.0
3.4916910419418539 4.5880780406592114 0.0
3.6208160886186533 2.6414475176055232 0.0
2.3291610178263764 1.3706306671603288 0.0
4.2837850417798684 2.2849014437231019 0.0
3.9569799784351773 2.5694429465871429 0.0
2.8778978931284223 -0.7828278134532723 0.0
4.0806240512834329 1.7140986545029235 0.0
2.5276646694683680 2.0574654344779768 0.0
2.5845458127612342 1.0601817478980757 0.0
3.8812082081136343 2.7123989663548067 0.0
2.7089610023359532 1.3536202264408865 0.0
3.8119653943488703 -0.3470944132012665 0.0
2.0190261790634816 1.4752819420509915 0.0
2.3557411775440951 0.6322205121263851 0.0
2.1941512009106114 0.0644009292759898 0.0
4.1025305260294633 2.4373375674817273 0.0
2.6357207759720138 1.6987687117855361 0.0
2.7969180471606010 2.4453477815672224 0.0
2.9347824360859569 4.7381160859938687 0.0
2.4310695569322731 1.2971044587165188 0.0
2.5254761502549679 2.8837089007971870 0.0
2.1846388753601294 1.6629467160749019 0.0
3.2817538898959553 3.5022149635073250 0.0
1.8412767075546355 1.7711483919808215 0.0
3.9050466131683259 -0.0206525189305624 0.0
3.5005590571423415 2.2979495309855764 0.0
3.8052215823901596 2.5523646006091565 0.0
3.9759905063339498 1.9225346199262590 0.0
4.0055262863367940 2.0092299715429025 0.0
3.6817081420055855 0.4715971886464869 0.0
3.0534447405009817 1.5407411017517549 0.0
1.6482593465757889 1.6823101456105576 0.0
2.3173275851246093 1.0962694019193993 0.0
2.8748105214066504 -1.0371831353489860 0.0
3.6772342338535617 2.5376217519117783 0.0
3.8841726216009671 1.9554150618068713 0.0
1.5236810961851004 0.0896589299965877 0.0
2.0258278611046432 1.0789771616097077 0.0
3.7296656839241114 3.1746467633995992 0.0
1.1639486190489396 0.4537029251922863 0.0
1.8313847808507469 3.2599776648099672 0.0
1.5234471251691581 0.8881707044774989 0.0
3.9240103266887707 1.4934196684095642 0.0
1.8405075384821532 2.2643525158170035 0.0
1.1131364760700277 0.7463966184913813 0.0
2.1161119015431451 2.3897788290943036 0.0
2.7839241353618700 3.3824729981515409 0.0
3.4248638897925243 1.0804531737190113 0.0
3.6818119999934003 0.6610760987506310 0.0
3.5851006996776320 2.2538378643566666 0.0
3.7593147004879279 -1.0844918731036666 0.0
3.3423143658090528 1.7934694863701499 0.0
4.0212087897329045 1.7114425413183956 0.0
1.6802735319525774 -0.3248688154558736 0.0
1.4315062221956265 1.5180546281372322 0.0
3.4385063912808103 2.6093618846728872 0.0
1.2913097589592129 1.7967691450489149 0.0
3.5871601087007443 2.7269796508206494 0.0
3.8568596246495863 1.0384747798469685 0.0
1.5175214717428538 0.8032107743937149 0.0
1.3771655162181671 1.3193842680309529 0.0
3.8944037191742722 -0.8449672862577813 0.0
1.8248353058362623 1.8437852477967709 0.0
1.5455488997537152 0.8517419618775887 0.0
1.3484931411511307 0.1628410401258897 0.0
3.6968887867912033 2.3781643717294250 0.0
3.8506280026694371 0.2086049218276146 0.0
3.2249807599532456 -0.2510353998342362 0.0
1.5934201794822564 3.1018885269645273 0.0
1.2282897573458462 1.0435748417196806 0.0
4.0917234115827421 2.1044148135997323 0.0
1.3218058840423583 0.8035557586317780 0.0
1.5280491246399694 2.7801648634496923 0.0
3.6348889714354971 2.0723464884769758 0.0
1.3809134919247636 -0.2581441884915551 0.0
3.4311888203884697 0.7973118236876140 0.0
3.1609353483885116 2.5150623224338995 0.0
2.6872550701452131 -1.4048878710863499 0.0
4.0136698738226206 2.5744382499399636 0.0
3.4365868691452426 1.9088059291237773 0.0
3.8093540492585340 0.2518760583683647 0.0
2.0001115908355955 3.0559049617798255 0.0
3.6242683901958981 3.6769920049597946 0.0
2.4431820895832210 4.0337696188925918 0.0
0.8571924771434631 0.8157643381061113 0.0
3.7266708556242842 2.5542473488564936 0.0
1.1085297663936873 0.5857716367294071 0.0
2.9871051160422679 0.2759380923221912 0.0
2.1132958162620956 2.2048704779342687 0.0
3.5840531559411644 2.8332454348027598 0.0
3.0339878176539647 1.0347101349494983 0.0
0.8509749796260248 0.6160800828734546 0.0
4.1155074671135656 1.9941123995965186 0.0
4.0018640342934493 -0.3581703197724800 0.0
3.5823030920181287 1.5863888850578372 0.0
2.2829766288236613 1.5649004239862880 0.0
0.7641786042012068 3.4574472082978969 0.0
0.9999456524771401 0.8642531745211570 0.0
4.1880406544151629 1.9180561963405116 0.0
1.3085614282076754 1.0467092964351066 0.0
1.2255331749930425 0.4751885974598465 0.0
3.1824698558683640 1.8844642832425704 0.0
1.4226391123332489 -0.2926753212543193 0.0
4.2078290706739043 2.4065382540370388 0.0
3.6647679096530137 1.6077752727533017 0.0
3.1426796933158156 2.2196732910632386 0.0
2.8974174271455073 3.0104760467950755 0.0
3.9208025809092346 3.2645995120598452 0.0
1.0137673812281194 0.3110317549338765 0.0
1.7261032789884903 2.4099757166939564 0.0
3.9841540925918943 2.5385490610250843 0.0
3.6883858655051696 -1.3742332330641573 0.0
1.2131519175939678 3.3076048650415992 0.0
1.1959750023733651 0.4837979961048681 0.0
0.9889993357676545 0.3947476227942496 0.0
0.9711294948125182 0.0569930968284816 0.0
4.0606371996647557 2.4464700082173683 0.0
3.8068225952087724 2.8383523721963764 0.0
2.8099732153429855 1.6659075416555409 0.0
1.0319273279810945 1.4876088454692875 0.0
3.8982407426715806 2.6306131197154077 0.0
4.1031921817120693 2.3078933127718546 0.0
4.2528912564193657 2.1291902693414499 0.0
4.0227532253793576 1.8278111674710324 0.0
1.6335868198024273 2.3201974105026859 0.0
3.8017762437227112 -0.0907928004714861 0.0
1.2569015015432028 0.6258657384717639 0.0
3.8789173480202441 1.4835322528094206 0.0
3.9424908151091644 1.3601164676666455 0.0
2.5740254128576430 1.7850913386908147 0.0
3.1227851339719948 1.5094431448507675 0.0
3.0852354239712136 2.1168363227248004 0.0
3.0502632201228459 1.9415248509159144 0.0
3.3653064427688100 1.7218987553691578 0.0
3.9967341471248088 2.2347741723520720 0.0
1.1198976159603442 0.1599029064938858 0.0
2.8731741328267675 2.1177387887497594 0.0
2.5178538410791997 0.8616960660530998 0.0
2.7727193194501965 2.0237256948725686 0.0
2.5472171773992920 -0.0141661729394283 0.0
4.0590957147332594 -0.6553047805499093 0.0
0.9403421616824893 0.9581357712467470 0.0
2.3131295722597853 -1.0760377061994584 0.0
3.9873732702796896 2.5688494316426205 0.0
2.8402313193828772 1.4282266698692490 0.0
3.1021904166967174 1.7946679254030706 0.0
3.4911523704705214 3.9784407376169395 0.0
0.5368007236881357 1.6425199414553100 0.0
3.7219115731169703 2.7219616327192457 0.0
1.5420974538361176 1.8398859773010658 0.0
2.9467178265354570 -0.6698306153846733 0.0
3.8006250839403495 0.8174169075054097 0.0
3.5790144128821644 2.4554795952020569 0.0
0.6525074664769065 0.5192491879158050 0.0
1.1990259101881682 2.2395378526725205 0.0
3.1064344461880964 2.7582961243091861 0.0
1.7180288324971980 2.9228371482483118 0.0
1.0160161753256960 1.8878201338398342 0.0
0.8296889227236280 1.5826313081253167 0.0
1.6637816820767874 3.0813974537321682 0.0
1.4584585424308911 1.1756979973308230 0.0
2.1902189541114603 -1.4150135897644220 0.0
2.1458857921919767 1.6100071905357334 0.0
0.6928020508921754 0.3022826496482486 0.0
0.7734047344253316 0.5876817141966373 0.0
3.9128268369925774 3.4642291260765870 0.0
1.2829406708557218 -0.0743281338814978 0.0
3.2703303939473880 0.8309862247814972 0.0
3.9312710559495816 -0.0865935066221002 0.0
3.8394814413142733 2.3801672773632925 0.0
1.1250736923144515 3.3292141263189681 0.0
2.6509488987173646 0.6999321121520452 0.0
0.6185589594931084 0.3739530459925661 0.0
3.5047523153084010 -0.4099673999991998 0.0
3.6637535027784915 2.6548048653442455 0.0
0.7967878415879744 -0.0103782686709247 0.0
2.6676894163883214 -0.2286543900729885 0.0
2.7237575833545331 1.4639327008141150 0.0
3.6939913672855051 -1.7219684252633993 0.0
0.8542656367669271 0.1096687005184990 0.0
2.5004134258965500 1.5712382178287525 0.0
2.8591065419889397 2.3996808870930679 0.0
2.2376700992873411 1.9481908232624650 0.0
3.8614227627802649 2.5299229782359482 0.0
3.7780104296337238 1.8921858480688918 0.0
2.5698656640030682 1.0986682776546766 0.0
3.7063740134943082 3.7872149444160974 0.0
4.1423768063052879 2.0398854577370007 0.0
0.9563667680139654 0.6021632455137000 0.0
3.1437870855372756 3.2396264918095885 0.0
2.7512149044254084 1.6550340749455561 0.0
4.1805129251965045 2.1318805043127007 0.0
4.1130087698212670 1.9371233711119684 0.0
3.0834698401803924 2.2017083011657479 0.0
3.7051136580515158 2.5549860962922195 0.0
1.2642522429408087 -0.7683329178821774 0.0
3.3985676318209395 0.6527120254153238 0.0
3.8908552242843020 0.1921151690057425 0.0
1.6698501286147107 4.0683846997919169 0.0
2.2726225454818336 1.8865923350062668 0.0
0.7192252670717828 0.6033934645786569 0.0
3.9365229061615818 2.5761887273646220 0.0
4.2340738180899029 2.0620123119455958 0.0
3.9168231107143567 1.1530713784046869 0.0
3.8010130714370520 2.1864664814113612 0.0
3.8118446169573295 2.9037663038472581 0.0
3.5174705203238728 0.1302114710207896 0.0
3.9090386826022230 3.4765103958240227 0.0
3.7521936414800967 2.4562184301950176 0.0
3.6626002935026913 1.8690502908608739 0.0
3.6043509251355776 1.7343413610878617 0.0
2.8458722671096459 1.8185709578293057 0.0
3.4556861053249128 1.3644933221339119 0.0
3.2241991692791898 1.6600517043233378 0.0
3.1463247236140903 2.3414111518609229 0.0
3.2971435727233582 2.4799562329286173 0.0
3.0754464464317866 -0.4598656239201143 0.0
3.6091535056652528 3.8502773823733523 0.0
2.5546218014782047 2.1357989379620790 0.0
2.9197802049772297 1.3943574975629707 0.0
3.8436353786235329 0.5585080369925051 0.0
2.4923754282933333 0.3934050798387279 0.0
3.5632117612264862 1.1917953317443442 0.0
2.8002026820005392 2.6323099548469009 0.0
3.4915833464206827 4.5881550537894986 0.0
3.6338434572426315 2.6375190642240933 0.0
2.2884845135120973 1.3469210629296471 0.0
4.2840301639644949 2.2882753413406602 0.0
3.9521834601645303 2.5591762524713495 0.0
2.8778031306899177 -0.7830206670706833 0.0
4.0765215879082399 1.7349144542762369 0.0
2.5145120596698702 2.0362472386635297 0.0
2.6255667244607253 1.0785193939963371 0.0
3.8932684472951729 2.6935379239838380 0.0
2.7539664366974792 1.3772464757794325 0.0
3.8105036147806230 -0.3426768390248504 0.0
1.9888244700959008 1.4506157231325503 0.0
2.3854790787384794 0.6430056059676061 0.0
2.1979455786890858 0.0687282194004295 0.0
4.1214160261981450 2.4494587467506612 0.0
2.6031631146035186 1.6972113493981216 0.0
2.8213892057842753 2.4447511169232841 0.0
2.9347433823480560 4.7381417348365646 0.0
2.3903554021007971 1.2758368413426446 0.0
2.5259776786431622 2.8818900712745759 0.0
2.2229685748782151 1.6893851538795588 0.0
3.2839382483398389 3.5013064314614710 0.0
1.8745558098101822 1.7761581856771014 0.0
3.8980394412027257 -0.0126412866622428 0.0
3.4744740937740297 2.2684964936379863 0.0
3.8352687303839357 2.5577640760384819 0.0
4.0058238842237097 1.9398836880800416 0.0
3.9716763276169034 2.0146194486148565 0.0
3.6796478233417904 0.4866601265893915 0.0
3.0302548054742364 1.5458729531261575 0.0
1.6468202189982866 1.6781842357704342 0.0
2.2778046530728964 1.0811072797507750 0.0
2.8747349850137272 -1.0373750374818154 0.0
3.7074911909284749 2.5375494945419890 0.0
3.8451660553108304 1.9439390845016451 0.0
1.5342009482525722 0.0963853576102494 0.0
2.0628066514879815 1.0975064321275398 0.0
3.7352486548742472 3.1626448925264783 0.0
1.1885498487477542 0.4634015294420333 0.0
1.8313764675196471 3.2599892075496171 0.0
1.4942825635333847 0.8694708280546329 0.0
3.9028608931423694 1.5116966172516160 0.0
1.8406170579258299 2.2645278424493984 0.0
1.0976936534927759 0.7327627107336024 0.0
2.1224834742489942 2.3883392417748683 0.0
2.7838189970693699 3.3823092935814909 0.0
3.4471886682597410 1.0998919966631244 0.0
3.6666407762936055 0.6697290615730759 0.0
3.5550777838239256 2.2287548622920941 0.0
3.7596468084340540 -1.0846794541506470 0.0
3.2990164435808396 1.7721771624518576 0.0
4.0395790675378649 1.7307625482004381 0.0
1.6799018687088119 -0.3247381390950399 0.0
1.4585408730686624 1.5295251923430484 0.0
3.4321820655611988 2.5851943518883136 0.0
1.3121886848959363 1.7984140885400006 0.0
3.6100543031583059 2.7166549885421274 0.0
3.8394717984494662 1.0565782528796488 0.0
1.4866362092131882 0.7879348476598316 0.0
1.3695698362925020 1.3076452368151545 0.0
3.8946538524501171 -0.8439008682032688 0.0
1.8250905164509241 1.8435431654330643 0.0
1.5220843601994347 0.8475630255292481 0.0
1.3658663717644348 0.1693537440859292 0.0
3.6731104085359503 2.3547303873898580 0.0
3.8416372664226670 0.2146407532576947 0.0
3.2263377020670103 -0.2438034578396490 0.0
1.5934197500081722 3.1018873037422212 0.0
1.2030687997727669 1.0217766690997301 0.0
4.0635779700005834 2.0964963853983827 0.0
1.3522212846538912 0.8214406906494303 0.0
1.5283520254880087 2.7800993476712113 0.0
3.6765713585734510 2.0958902562191564 0.0
1.3815204502870415 -0.2568102749006846 0.0
3.4427020311808572 0.8151499461863171 0.0
3.1574637780299333 2.4940351775777638 0.0
2.6872479519876369 -1.4049279624684086 0.0
4.0311032805569829 2.5823929912913433 0.0
3.3950575607110780 1.9081271791237939 0.0
3.8033015872285376 0.2632504161143885 0.0
2.0000917802492477 3.0560214972229161 0.0
3.6260473297027436 3.6743189161463086 0.0
2.4430619026279889 4.0337955073480849 0.0
0.8775924298600855 0.8323879379874020 0.0
3.7193354856630600 2.5287232252173815 0.0
1.0828453969291616 0.5724837785563813 0.0
2.9961173169834625 0.2878706843379030 0.0
2.1282282755320683 2.2048203052215349 0.0
3.6021819061469076 2.8245206373207759 0.0
3.0178464867047960 1.0408207885138996 0.0
0.8347243342515649 0.6027338726081228 0.0
4.1420540957962562 2.0111700410966944 0.0
3.9987291386254098 -0.3548217533601311 0.0
3.6193631369512453 1.6072229723013975 0.0
2.2652632542434255 1.5656738061386108 0.0
0.7641786042012069 3.4574472082978973 0.0
0.9887124965439369 0.8514877703730983 0.0
4.1786754402435049 1.9316186433712135 0.0
1.3055799017479461 1.0410972196085759 0.0
1.2555378697350477 0.4883853761831748 0.0
3.1392579921337469 1.8592957842215954 0.0
1.4223653704656516 -0.2927147118821694 0.0
4.2046639959407699 2.4071786641158006 0.0
3.6312544258533537 1.6186876180674676 0.0
3.1845101678613124 2.2402089280228230 0.0
2.8956086047915890 3.0001280735468159 0.0
3.9299360455395931 3.2596423267836840 0.0
1.0346663697127441 0.3179811479458134 0.0
1.7261564781283472 2.4101739103151729 0.0
3.9892371553135701 2.5297653667347180 0.0
3.6885457086555102 -1.3745383822133532 0.0
1.2131525792454103 3.3076048520655581 0.0
1.2225842864100100 0.4952197503277269 0.0
0.9637936729829262 0.3836519140897198 0.0
0.9843570539974672 0.0605396155383642 0.0
4.0541116676886775 2.4373894940797696 0.0
3.8183137015770865 2.8175246082963756 0.0
2.7692966817428664 1.6390306300052224 0.0
1.0314573282006749 1.4853906246058766 0.0
3.9147553986637269 2.6159034019223251 0.0
4.1272188038858202 2.3236570653621453 0.0
4.2573553383646336 2.1361631626886921 0.0
3.9966153903753985 1.8424668994342384 0.0
1.6335728491870047 2.3202358890130785 0.0
3.7988763498790021 -0.0816088194936330 0.0
1.2336752760711671 0.6170221970030700 0.0
3.8946568054170259 1.5046393233492037 0.0
3.9433478919538403 1.3839760883209882 0.0
2.5558656621328888 1.7622068367372163 0.0
3.0785913299813905 1.4980526262621150 0.0
3.0581030659843558 2.0871728395996243 0.0
3.0959563786408100 1.9686680362770868 0.0
3.4084539224970478 1.7429079435777914 0.0
3.9653400272997019 2.2234507537329917 0.0
1.1258697412032870 0.1626972682251337 0.0
2.9129393589975217 2.1207805680765897 0.0
2.5528481044693083 0.8785298585177843 0.0
2.7390965344617024 1.9955469666442176 0.0
2.5541218246060176 -0.0054664401446778 0.0
4.0582594610643916 -0.6538777308432362 0.0
0.9402858088191116 0.9575128892591717 0.0
2.3131264990147749 -1.0760349905966544 0.0