# vtk DataFile Version 3.0
LucasCarvalhoTCC Results
ASCII

DATASET POLYDATA
FIELD FieldData 1
TIME 1 1 double
0.30000000000000004

POINTS 531 float
0.02430399999999999 0.16425 0.0
0.5913384 0.481878 0.0
1.30475 0.591832 0.0
0.774126 0.951272 0.0
0.04779564148251592 0.1966194329439859 0.0
0.0726092153537953 0.2279866320496896 0.0
0.09876577335895967 0.2582426022760065 0.0
0.1262817198684718 0.2872673048853742 0.0
0.1551671626852806 0.3149288071400502 0.0
0.1854238368919928 0.3410826624766006 0.0
0.2170424591499632 0.3655716640299072 0.0
0.2499995164635996 0.3882263409476824 0.0
0.2842534387828506 0.4088665906889567 0.0
0.3197403359862048 0.4273050841371062 0.0
0.3563695945475563 0.4433531534921038 0.0
0.3940201673622058 0.4568300511916809 0.0
0.4325386107291805 0.4675762214989666 0.0
0.4717406913237268 0.4754709112408955 0.0
0.5114182513144845 0.480453442081874 0.0
0.5513531678859215 0.4825464217651069 0.0
0.6182637923774223 0.5096055604109244 0.0
0.647389101376845 0.5350126187545199 0.0
0.6784752958296183 0.5579802184492302 0.0
0.7112421079139344 0.5784810076698811 0.0
0.7454110434104482 0.5965507527581431 0.0
0.7807301979183381 0.6122562812860965 0.0
0.8169827939052532 0.6256694297140926 0.0
0.853985522124928 0.6368498290413532 0.0
0.8915818964261243 0.6458353363890481 0.0
0.9296339776508085 0.6526379336565091 0.0
0.9680139759519513 0.6572432424840469 0.0
1.006596418266983 0.659612648128084 0.0
1.045251165872634 0.6596877658251245 0.0
1.083837680945672 0.657397570658483 0.0
1.122201320191055 0.6526688455666412 0.0
1.160173053543044 0.6454405726452737 0.0
1.197574286953346 0.6356824063786186 0.0
1.23422961949795 0.6234159704281613 0.0
1.26998758503999 0.6087366500005643 0.0
1.285086682927543 0.6256533177085738 0.0
1.263669745906668 0.6583917156018083 0.0
1.240480125919214 0.6898988493917133 0.0
1.215532715641304 0.7200329197235763 0.0
1.188869833862339 0.7486599839005789 0.0
1.160556835593143 0.7756559317113654 0.0
1.130680194163798 0.8009104211039757 0.0
1.099347083827048 0.8243335727704395 0.0
1.066684425336412 0.8458643604021228 0.0
1.03283497048792 0.8654772531176074 0.0
0.9979492572630678 0.8831824104874066 0.0
0.9621749986495024 0.8990166556695112 0.0
0.9256475378616493 0.9130272060048579 0.0
0.8884846540507749 0.9252538945090274 0.0
0.8507866567183312 0.935715378288671 0.0
0.8126405010322847 0.9444016349017643 0.0
0.7365055179612304 0.9396161853607135 0.0
0.699310855231089 0.9266666891603924 0.0
0.6626179171945521 0.9123577070090924 0.0
0.6264901449910028 0.8966765244755546 0.0
0.5909789825447118 0.8796450886595113 0.0
0.556124897941028 0.8613059841617771 0.0
0.5219601957009091 0.8417124664434518 0.0
0.4885110616878257 0.8209207172498462 0.0
0.4558007060429968 0.7989848675704875 0.0
0.4238520247653796 0.775953675763176 0.0
0.3926900138417566 0.7518687036338616 0.0
0.3623437622133722 0.7267636709390595 0.0
0.3328479550295906 0.7006647540504483 0.0
0.3042438201183181 0.6735915983461908 0.0
0.2765795358619001 0.6455588748284606 0.0
0.2499101143933102 0.6165781952942546 0.0
0.2242967982692083 0.5866601984136335 0.0
0.1998060807431611 0.5558166834807132 0.0
0.1765083808984156 0.5240625786010467 0.0
0.154476512720734 0.491417660368959 0.0
0.133784033184808 0.457907916333494 0.0
0.114503564227142 0.4235664945146766 0.0
0.09670517293008124 0.3884342245925089 0.0
0.0804548910754031 0.3525597611689231 0.0
0.06581337946329963 0.3159993090744527 0.0
0.05283482490365372 0.2788161107032479 0.0
0.0415660226296666 0.2410796291505872 0.0
0.03204569406625649 0.2028646095712164 0.0
0.5272009874003867 0.6419624505772817 0.0
0.7421848286576707 0.7716726266421574 0.0
0.8789503364783713 0.7829234141383637 0.0
0.6149390992905563 0.7449438030688011 0.0
0.4064556042659638 0.5942834991165423 0.0
0.9875021850865396 0.7666507358101158 0.0
0.3188065960661005 0.539594034984892 0.0
0.61365100263957 0.6399487878797632 0.0
0.8049090660915541 0.8464379870891131 0.0
0.7099820328572021 0.6828840522539854 0.0
0.5239467234991928 0.7406922291088611 0.0
0.8154056325591208 0.7211774015928547 0.0
0.6676178829014909 0.8152713180209475 0.0
0.4416080359619968 0.674360953773491 0.0
0.489443615375965 0.5654986742123573 0.0
1.076665773779852 0.7387182918829318 0.0
0.250390543112057 0.4877450112830265 0.0
0.5736819937919005 0.5790366884881447 0.0
0.7263706755366466 0.8615301097563091 0.0
0.940143307772686 0.8233944909985552 0.0
0.927065543677544 0.7236459161626674 0.0
0.8744389806957806 0.8609114380468947 0.0
0.336888362650554 0.6081958070931937 0.0
0.2030757334857187 0.4383942902513459 0.0
0.3861483329720647 0.5255533415902591 0.0
0.5621001921466506 0.7923778419149285 0.0
0.6822897332295245 0.7428043323059399 0.0
0.5764061681675353 0.6881266532454204 0.0
1.129195449682892 0.7163224153578123 0.0
0.8157794419559141 0.7831214907157077 0.0
0.3806644703311284 0.6554275822782399 0.0
0.7695737871052837 0.669593045341503 0.0
0.4699375460410929 0.6217118815516158 0.0
0.6830867370872363 0.630350317562806 0.0
1.040416897214502 0.7929392348941093 0.0
0.4604428393605979 0.7321209818568342 0.0
0.8729552856459739 0.7015083313474691 0.0
1.017010765275644 0.7166925631396708 0.0
0.6458785458483771 0.6946878992565794 0.0
0.7733575582969163 0.8941098392103913 0.0
0.4457537579383052 0.5273353624588528 0.0
0.163830623786951 0.3903175742448083 0.0
0.6095823984734953 0.8256600013628639 0.0
0.2618074352614998 0.5435604438425528 0.0
0.6287880420949764 0.5875838132975476 0.0
0.3100402147222924 0.4835410260423071 0.0
0.5422177893302824 0.5343158927797464 0.0
0.9964262112680041 0.8213447667248638 0.0
0.4971609598823845 0.6906859160718212 0.0
0.5740517260168769 0.633982031239429 0.0
0.7423299505107201 0.7218768583704394 0.0
0.767147744476665 0.819658485932403 0.0
0.9427329070375209 0.7774595780066723 0.0
0.8375285793481674 0.8869398470561132 0.0
0.2879426409425497 0.5872676364411625 0.0
0.6797562629663748 0.8647676397847667 0.0
1.171674168522591 0.6949964056806914 0.0
0.5261010885606964 0.6055079299963303 0.0
0.7081534744446967 0.8078672678314597 0.0
0.9681672688626206 0.705385299758921 0.0
0.7364069054947873 0.6432919177737106 0.0
0.363826821075015 0.5678764295233764 0.0
0.826170216989844 0.6605791783255148 0.0
0.1284439337099834 0.3602715082199688 0.0
0.518140828090112 0.783905985497134 0.0
0.8452908336054504 0.8167586152211004 0.0
0.2015204468558833 0.492088055688788 0.0
0.4005883523205732 0.7121294304856254 0.0
0.3551392316798573 0.4864133323669936 0.0
0.2501727034998737 0.4443035857235296 0.0
0.857938396055507 0.7390317828783199 0.0
0.9245301815433076 0.8668102132501951 0.0
0.5702050292970205 0.7323438487067678 0.0
1.111607633075016 0.759318252473435 0.0
0.6317193755596126 0.7853891653733797 0.0
0.7921381265818805 0.7497379312370454 0.0
1.088942426366261 0.7015435214091311 0.0
0.5818207607488639 0.5352340257544296 0.0
0.4203532416309484 0.6369649631143086 0.0
0.4854818714173937 0.5131439318707094 0.0
0.4475429831528036 0.5690430472086269 0.0
0.8968753306595262 0.8225547516037004 0.0
0.6339557898063448 0.8543470494763272 0.0
0.3416564411796998 0.6516449771136894 0.0
1.082970576264455 0.7856036465430698 0.0
0.2255204648032354 0.5229464838393291 0.0
0.7335043541589261 0.9012744999286941 0.0
0.9097052989734319 0.6921177492721042 0.0
0.5363428275528405 0.6992389299864537 0.0
0.9657777897300287 0.8588269742066746 0.0
1.025947476617909 0.7556651119714124 0.0
0.1090829970454354 0.3226173037985549 0.0
0.4836644525169279 0.7663103281018557 0.0
0.6910856326166581 0.777867529208468 0.0
0.6694391877434097 0.5946719355048008 0.0
0.2954883530575775 0.4501042133334518 0.0
0.6746032498128595 0.6643957640016517 0.0
1.054636636429828 0.6974583960183274 0.0
0.8939255235163368 0.7470597914537064 0.0
0.3749741568555516 0.6190655430398917 0.0
1.204101441114554 0.6801433534918062 0.0
0.6130053345415899 0.6785345531932346 0.0
0.7679719108452487 0.8562682874000032 0.0
0.9710820219997449 0.8008372590855476 0.0
0.1608022352294362 0.4242591696906621 0.0
0.2865399820604418 0.5141369963640697 0.0
0.1962258775846918 0.4008383427744516 0.0
0.6210920174972845 0.5516143721732873 0.0
0.4843009180093644 0.6583977883024127 0.0
0.5695029195102991 0.8267073580550881 0.0
0.9562891163300477 0.7436031251145003 0.0
0.4174190173896447 0.5044019081507806 0.0
0.410860431802698 0.5535781448116232 0.0
0.8709320861791604 0.9002602580953145 0.0
0.427354757192076 0.7399041791280969 0.0
0.7107884943357746 0.7172753954970394 0.0
1.030382288537246 0.8267335242583146 0.0
0.7737440530215844 0.7115751739064536 0.0
0.8042035044852396 0.9123190309183211 0.0
0.0480920891272324 0.2181807374272496 0.0
0.3695079235280397 0.6886893012630373 0.0
0.773516204411121 0.7830673827025234 0.0
0.302776671534508 0.6210168062901616 0.0
0.7150573728414059 0.6149413270404035 0.0
0.5863276441271683 0.769748656022605 0.0
1.143752049005473 0.6780480059671409 0.0
0.6477132714923303 0.7318578097016951 0.0
0.8380052680878572 0.8531154611905379 0.0
0.5966224054445893 0.6051703156405629 0.0
0.3207240819522855 0.5772784374275386 0.0
0.3520131451607586 0.5263918604440553 0.0
0.8573528491808811 0.6709738722470224 0.0
0.1797236573643203 0.460867988842514 0.0
0.5540828191547277 0.6661566975721369 0.0
1.158039843450239 0.7357536542887966 0.0
0.08638006908591334 0.286237566592474 0.0
0.790861820497242 0.6466611559014377 0.0
0.5362079962218838 0.8121454698907893 0.0
0.9405172130232713 0.6862060282668497 0.0
0.6039359324506977 0.711463595189489 0.0
0.4440093493753478 0.6096873538428137 0.0
0.5500746279087338 0.7620941994763282 0.0
0.2578504496023611 0.5739900063885278 0.0
0.502526452350101 0.6209820553182169 0.0
0.6799833858912959 0.7033681517905728 0.0
0.7183487148906835 0.7518430858176317 0.0
0.8006701240044786 0.8118713608014352 0.0
0.1304684854221093 0.3934039266496895 0.0
1.00789495394612 0.7937868725857601 0.0
0.696960396255943 0.893370944718147 0.0
0.8258315165019564 0.7538365084989149 0.0
0.8462950259502577 0.775614153529746 0.0
0.4082018839227037 0.6749460331934272 0.0
0.7025889307788081 0.8378536687159448 0.0
0.4666676520109517 0.6984557076050861 0.0
[...]
POINT_DATA 531

VECTORS Velocity float
0.0000000000000000 1.0000000000000000 0.0
0.0000000000000000 1.0000000000000000 0.0
2.6344905120809980 -0.9609330731448543 0.0
2.2923229456724736 1.0766315444854233 0.0
0.0000000000000000 1.0000000000000000 0.0
0.0000000000000000 1.0000000000000000 0.0
0.0000000000000000 1.0000000000000000 0.0
0.0000000000000000 1.0000000000000000 0.0
0.0000000000000000 1.0000000000000000 0.0
0.0000000000000000 1.0000000000000000 0.0
0.0000000000000000 1.0000000000000000 0.0
0.0000000000000000 1.0000000000000000 0.0
0.0000000000000000 1.0000000000000000 0.0
0.0000000000000000 1.0000000000000000 0.0
0.0000000000000000 1.0000000000000000 0.0
0.0000000000000000 1.0000000000000000 0.0
0.0000000000000000 1.0000000000000000 0.0
0.0000000000000000 1.0000000000000000 0.0
0.0000000000000000 1.0000000000000000 0.0
0.0000000000000000 1.0000000000000000 0.0
0.0000000000000000 0.0000000000000000 0.0
0.0000000000000000 0.0000000000000000 0.0
0.0000000000000000 0.0000000000000000 0.0
0.0000000000000000 0.0000000000000000 0.0
0.0000000000000000 0.0000000000000000 0.0
0.0000000000000000 0.0000000000000000 0.0
0.0000000000000000 0.0000000000000000 0.0
0.0000000000000000 0.0000000000000000 0.0
0.0000000000000000 0.0000000000000000 0.0
0.0000000000000000 0.0000000000000000 0.0
0.0000000000000000 0.0000000000000000 0.0
0.0000000000000000 0.0000000000000000 0.0
0.0000000000000000 0.0000000000000000 0.0
0.0000000000000000 0.0000000000000000 0.0
0.0000000000000000 0.0000000000000000 0.0
0.0000000000000000 0.0000000000000000 0.0
0.0000000000000000 0.0000000000000000 0.0
0.0000000000000000 0.0000000000000000 0.0
0.0000000000000000 0.0000000000000000 0.0
2.6745675451800803 -1.7883149902944626 0.0
3.5959098655839821 -2.2467142768221295 0.0
3.5328660974006993 -1.9806982245948903 0.0
3.3694351538654015 -1.4645349335815190 0.0
3.0516100024822137 -0.9805596492531751 0.0
3.0215323499031896 -0.7101186099344045 0.0
3.0822907711202090 -0.4948663397434427 0.0
3.0646441947267022 -0.3428566405083116 0.0
3.0552843308715265 -0.1313267484112290 0.0
3.0642282019435503 0.0465564662986060 0.0
3.0475728008746032 0.2167117386729935 0.0
3.0033192451146222 0.3826948096389202 0.0
2.9931248675745281 0.5261708949743076 0.0
2.9314073480644263 0.6680017730372858 0.0
2.7632174894865971 0.9109856900236389 0.0
2.4922242460932877 0.8777936355752126 0.0
0.0000000000000000 0.0000000000000000 0.0
0.0000000000000000 0.0000000000000000 0.0
0.0000000000000000 0.0000000000000000 0.0
0.0000000000000000 0.0000000000000000 0.0
0.0000000000000000 0.0000000000000000 0.0
0.0000000000000000 0.0000000000000000 0.0
0.0000000000000000 0.0000000000000000 0.0
0.0000000000000000 0.0000000000000000 0.0
0.0000000000000000 0.0000000000000000 0.0
0.0000000000000000 0.0000000000000000 0.0
0.0000000000000000 0.0000000000000000 0.0
0.0000000000000000 0.0000000000000000 0.0
0.0000000000000000 0.0000000000000000 0.0
0.0000000000000000 0.0000000000000000 0.0
0.0000000000000000 0.0000000000000000 0.0
0.0000000000000000 0.0000000000000000 0.0
0.0000000000000000 0.0000000000000000 0.0
0.0000000000000000 0.0000000000000000 0.0
0.0000000000000000 0.0000000000000000 0.0
0.0000000000000000 0.0000000000000000 0.0
0.0000000000000000 0.0000000000000000 0.0
0.0000000000000000 0.0000000000000000 0.0
0.0000000000000000 0.0000000000000000 0.0
0.0000000000000000 0.0000000000000000 0.0
0.0000000000000000 0.0000000000000000 0.0
0.0000000000000000 0.0000000000000000 0.0
0.0000000000000000 0.0000000000000000 0.0
0.0000000000000000 0.0000000000000000 0.0
2.9534287904530121 2.0808180964060514 0.0
3.2949757245751701 1.4099725981267432 0.0
3.2809475329553801 0.8117761961866629 0.0
3.1418786046738361 1.7871643860312079 0.0
2.9503995059237615 2.4654347193673471 0.0
3.3388513645815086 0.2204781837635777 0.0
3.1314313939504643 2.9912562587095421 0.0
3.0232750723554020 2.0296701131521608 0.0
3.1542109589317922 1.2098759619204020 0.0
3.4241367604035262 1.6977254988569204 0.0
3.2019330206507792 2.1067563076802052 0.0
3.4396386774339534 1.1474545429103131 0.0
3.3583250657875992 1.6828738835216626 0.0
2.9123191968451607 2.3213470886588250 0.0
2.9327875812237227 2.1246266715916677 0.0
3.4833709503875459 -0.2902376350261212 0.0
3.2206615715447913 3.7724967432871774 0.0
2.8120060831832383 2.1269014674233615 0.0
3.5414408047351875 1.4239463026153600 0.0
3.2109859913228975 0.4731821418594749 0.0
3.4751195532422345 0.5676353791070945 0.0
3.1163003698701353 0.8054833021515325 0.0
2.9647093333751373 2.8826363543718139 0.0
3.2927895832371821 4.4561082379883512 0.0
3.3214665083779593 2.4740524624148348 0.0
3.1548302744067276 1.9076957666198957 0.0
3.2526897902754226 1.6273260517826134 0.0
3.0482827199329017 1.9557197820579117 0.0
3.3694485445026623 -0.7503330938500250 0.0
3.2899831869126359 1.1471781701393906 0.0
2.8222518899589679 2.5815175188029347 0.0
3.3579663052524418 1.2725353474308736 0.0
2.9317591370968570 2.2084811775505147 0.0
3.3485419120926894 1.8397454233371058 0.0
3.2205867438722731 -0.0900572527250428 0.0
2.9650396228906151 2.0067009814017753 0.0
3.4533521179671687 0.8278576271215762 0.0
3.2832552770932080 0.1326415386514889 0.0
3.1811907928197725 1.8166768925174641 0.0
3.1921338764130378 1.6935080581490785 0.0
3.0486267425573113 2.2646299809649788 0.0
2.8724900596441576 4.6371257760747397 0.0
3.2445109183203420 1.6453887142043084 0.0
2.5971294852345128 3.2306737894082569 0.0
2.9444630743885720 2.1849523687215182 0.0
3.0723099126184108 3.2362068951036207 0.0
2.5817143007527648 1.9342107472009606 0.0
3.1990497978884975 0.1746148720732356 0.0
3.0102161395180445 2.0744872404731796 0.0
2.9460291901162057 2.0278124334196579 0.0
3.3429441581780663 1.4205521944920951 0.0
3.2549305868761906 1.3244264147011386 0.0
3.2935541782639173 0.4374900825953976 0.0
3.0090912140220243 1.0403871894153165 0.0
2.1251403716778761 2.0877151046815956 0.0
3.2018835644456538 1.5849861307294550 0.0
3.2575902866863955 -0.8243889083628675 0.0
2.8798136991895760 2.0906249269968051 0.0
3.2491539017555211 1.5354409728947858 0.0
2.6204167666163203 0.2636299849709795 0.0
2.7183579776585445 1.2716434177716056 0.0
3.0459571417185893 2.7207728504032560 0.0
2.1043073885950032 0.7212988939417194 0.0
1.8080108053243509 3.2672759825180759 0.0
2.2304771159707388 1.4343993804349924 0.0
3.2075596085958091 0.9797756966789601 0.0
1.8393691317547187 2.4403258485774755 0.0
1.7787750172581327 1.3595452338213108 0.0
2.2945427576268509 2.4779488752002710 0.0
2.6153462783966486 3.2295917885963954 0.0
3.4107118587854033 0.9345587489130242 0.0
3.1091144727567941 0.5599984969462100 0.0
3.0874348976957986 1.9607383890176220 0.0
3.2380023758478451 -0.5920981061289177 0.0
3.2043965098046825 1.6704598348041984 0.0
3.3149408600703762 1.2156628823009046 0.0
2.5022024337151323 -0.3809504834324815 0.0
2.1082355755056548 1.7827224090051184 0.0
2.8961740142353154 2.4434285856615681 0.0
1.9325263543876490 1.8354306363751365 0.0
2.9817790517320724 2.2557811166711756 0.0
3.2046247776690420 0.7172302575148444 0.0
2.2936115843604297 1.1643445972416475 0.0
1.8155293669127417 1.8221924895351305 0.0
3.2287735436399925 -0.3010496731821867 0.0
1.8596856944623870 2.2541258149225873 0.0
2.2924957749802601 1.1191482778611483 0.0
2.4683375784927630 0.3802757607805071 0.0
3.0640543885646938 2.0339354195747887 0.0
3.1253986346008782 0.3493785296974696 0.0
3.3135186201247153 -0.0115684906719596 0.0
1.5779858727281906 3.1099585071619940 0.0
1.9852348195585545 1.5190271759624250 0.0
3.2820292060043328 1.5708408520094195 0.0
2.0843337994786215 1.3196011053986911 0.0
1.7544929140511802 2.7700980439314598 0.0
3.2359576687475360 1.8226727385143260 0.0
2.2728611467746505 -0.2317029886102082 0.0
3.3521271640791013 0.7593179763042364 0.0
2.9622304349262309 2.6550849815042068 0.0
2.8148256528713533 -1.0715908215338390 0.0
3.1038101759084582 1.9106954738108466 0.0
3.2317585649046601 1.4495495301147956 0.0
3.2339609473996700 0.3081804328368383 0.0
1.9692525821020253 3.0505301828423943 0.0
2.9029140457108125 3.2261821462785001 0.0
2.4120380118869447 3.9346765566029220 0.0
1.4872656520713146 1.3607379114352023 0.0
2.9173234153736143 2.1479463608811353 0.0
1.9334342981918076 1.0684438925882338 0.0
3.4738267240649017 0.3893431756791823 0.0
2.3997156142404168 2.1645426402428716 0.0
3.0978855277941997 2.3977615165639921 0.0
2.9572772145802855 0.8069987294628213 0.0
1.5756433288963654 1.2067831720078177 0.0
3.3212060180796668 1.5641050186138536 0.0
3.1663167677598056 0.0214020241880571 0.0
3.3920747625526437 1.3167570675368920 0.0
2.7435538589891952 1.3144255706699328 0.0
0.7646010062596740 3.4572653560239224 0.0
1.5890704586961881 1.3976917423983788 0.0
3.2883657716611325 1.2889090876413001 0.0
1.7101280072769032 1.5119561992529948 0.0
1.9212376994080018 0.8167538441799574 0.0
3.1440590823395302 1.8537166210586098 0.0
2.1338084725188633 -0.4256804928048136 0.0
3.2010901215314052 1.7663471609780577 0.0
3.1534342357231684 1.0502460630649497 0.0
2.9482715180718095 2.0637609595139859 0.0
2.9722073224516214 2.9897381637232239 0.0
3.2704023267872464 2.8919770486998275 0.0
1.9860564605998670 0.5234495526211339 0.0
1.6962338363561387 2.4865477464936645 0.0
2.9890373505357433 2.0208441435710487 0.0
3.2264920162569193 -0.7880811318020721 0.0
1.2144960848179707 3.3071400508266580 0.0
2.0399619986348179 0.8200727995471352 0.0
1.7418828309371182 0.7733900655615454 0.0
1.8856482718970167 0.1631198616468613 0.0
3.1335053127964994 1.8553812024780787 0.0
2.9005355883364330 2.2975531142726644 0.0
3.1001297907764918 1.9661907835952639 0.0
1.4536493757368791 1.9747643813174147 0.0
2.9259975479737790 2.1303044642033355 0.0
3.2401715745335666 1.7224761657450727 0.0
3.2894039724689046 1.4997660102466464 0.0
3.2401918806915866 1.1970905938716494 0.0
1.6247253464845570 2.3770997178341560 0.0
3.2394775158590638 0.1328522777546886 0.0
2.1069249565184198 0.8758538651903810 0.0
3.2908994608011821 1.0611262327119197 0.0
3.2669029618848113 0.9698000185630591 0.0
2.9267212756533802 2.3806106070136304 0.0
3.2281749095253796 1.4386237569067852 0.0
2.9540781003699750 2.1283918986875530 0.0
3.2298107836362409 2.0590331629411560 0.0
3.4880165629742472 1.4985484602358274 0.0
3.2388203785450789 1.6634140048136843 0.0
2.0422772703503709 0.2596839757992215 0.0
2.8703895230655525 2.0369084047522796 0.0
3.4918611996150664 1.1040345827185423 0.0
3.1204666861515649 2.0654175048491772 0.0
3.4467124934568680 0.0778683661442789 0.0
3.1529273475951620 -0.1339508873011134 0.0
1.2544826270068252 1.4575163191997940 0.0
2.4290055729243227 -0.9647628637389581 0.0
3.0409321551855388 1.9865187018842965 0.0
3.2705498952954253 1.8511819396007871 0.0
3.0712634886447487 1.2579854937399497 0.0
3.1814767657351610 3.9845271943161951 0.0
1.1249716741375968 1.6741911413055721 0.0
2.9123220803039733 2.1936787268353712 0.0
1.8317442632403269 1.9285111727186792 0.0
3.3036294048758164 -0.4931499587376127 0.0
3.2807007421026646 0.6292229686865924 0.0
2.8947590500849318 2.0533993016882861 0.0
1.3111961813954249 1.0227887355420653 0.0
1.5304397155986502 2.3426811516071706 0.0
3.0408646456156285 2.9076828241028294 0.0
1.7568106168741040 2.9500444962892676 0.0
1.5001963060033592 1.9790842314454848 0.0
1.5050476466625584 1.6484292372717497 0.0
1.6842393584439910 3.0622712102988068 0.0
2.0859824359252088 1.3338826255142691 0.0
2.2242461058642893 -1.3733494437640328 0.0
2.8474211991265559 2.2977947412552604 0.0
1.4232422596036651 0.6048628764009232 0.0
1.4191030664306243 1.0444819768701210 0.0
3.2584797211761045 3.1037593893551803 0.0
1.9808888875636186 -0.1024125856701309 0.0
2.9952150490300982 0.6820634176970563 0.0
3.1190640482478269 0.1916005990766548 0.0
3.1789778399702975 1.8806983931593617 0.0
1.1279224134779435 3.3278216531469305 0.0
3.4904419620598168 0.7559021747267919 0.0
1.3139634870549635 0.7530577220450759 0.0
3.3172352800034259 -0.0806179612461009 0.0
2.9195313023871474 2.2202359270160006 0.0
1.6018411060372879 -0.0138563288809051 0.0
3.3983957517905625 -0.0750719324836365 0.0
3.3972737077064519 1.7427614855555613 0.0
3.3859553932410416 -1.0218520026330753 0.0
1.7799917477413512 0.1879009498658442 0.0
3.2159907728614008 1.8144057206743012 0.0
3.0774480719736039 2.1396488982316173 0.0
2.8742062077861554 1.8910121802152768 0.0
2.9669574107793011 2.0841857808167794 0.0
3.3157092381483584 1.4499273640896031 0.0
3.4380980013488998 1.2511640699734194 0.0
3.2316421302257856 3.3304147554294685 0.0
3.2762663707717334 1.4088641092312129 0.0
1.7064638020548435 1.0197762831546768 0.0
2.8503803521179729 3.3695204570679689 0.0
3.3797869358194434 1.6320900451699603 0.0
3.2935023772063636 1.4731956246510143 0.0
3.3190439441842519 1.3691751535567775 0.0
2.9935248599058153 2.1203590291145344 0.0
2.8991993903261046 2.1073334132658443 0.0
1.7795119164202549 -0.8117038339871917 0.0
3.3673359064799739 0.5864510696421553 0.0
3.1881185487418668 0.3078717525648753 0.0
1.6579757700428741 4.0258307287098596 0.0
2.8474105304357162 2.1882209715900500 0.0
1.1961266104678272 0.7730375808168691 0.0
2.9823166925345288 2.0676719858625607 0.0
3.2802430227605046 1.4203494702583273 0.0
3.2772563379558175 0.8511025449884937 0.0
3.0900374250249385 1.7540037684446503 0.0
2.9693543795869934 2.4298176272842960 0.0
3.3400512238892159 0.2648153370175065 0.0
3.1558376321879211 2.9607064066058282 0.0
3.0933920320424635 2.0709179241533451 0.0
3.0620027506830239 1.2283752905080734 0.0
3.5263732744964904 1.7602689532308911 0.0
3.0952392681267211 2.0250089710654025 0.0
3.5267323579267664 1.1888633394622836 0.0
3.2449341910967395 1.6310123883930805 0.0
2.8522905705160944 2.2506336020327291 0.0
3.0323262307891876 2.1252709502635430 0.0
3.4928174275624904 -0.2560610109914400 0.0
3.2335323786990644 3.7370250219914580 0.0
2.9301377693849555 2.1701150763408208 0.0
3.3948164399093130 1.3883777849821013 0.0
3.1248081856509162 0.5219407806523062 0.0
3.5804609998706369 0.6076314000600319 0.0
2.9978524079246798 0.8544073127164007 0.0
2.9095474980761735 2.8011831056036156 0.0
3.3071415028047824 4.4469854844798737 0.0
3.4171363819449514 2.4779611868262736 0.0
3.0122391502118759 1.8198303513859013 0.0
3.2517279165289650 1.6306227250389362 0.0
3.0427335630286634 1.9423871664781327 0.0
3.3776517556668035 -0.7365558686191315 0.0
3.2814373164012838 1.1758992166962878 0.0
2.7447312663930665 2.4821464292992252 0.0
3.5111030751884691 1.3342184046339252 0.0
2.9535877367540504 2.1796486627426885 0.0
3.5052051661869177 1.9267975970282711 0.0
3.1638611587405960 -0.0349477011035736 0.0
2.8299206940100361 1.9155382579907576 0.0
3.5957851224159576 0.8687687778627790 0.0
3.3606732778245383 0.1529141666726712 0.0
3.2151208856838527 1.8340841693778047 0.0
3.0391359926294297 1.6816264428460503 0.0
3.1768140668034004 2.2748631870034477 0.0
2.8794148265551129 4.6335499144287082 0.0
3.0965020373903362 1.5744884335501073 0.0
2.5694564255764831 3.1693493831357036 0.0
3.0904439452030248 2.2867591502444253 0.0
3.1377258334201299 3.2561655786922641 0.0
2.7241920526654519 1.9612760588980644 0.0
3.1114827391132867 0.2394542644014676 0.0
2.9565128757718568 2.0174841543349187 0.0
3.0025829985234878 2.0402043019632439 0.0
3.3985753967412529 1.4487785368860895 0.0
3.1879266162877031 1.3329645825776311 0.0
3.2827108396932050 0.4794231453876585 0.0
2.8736346633579317 1.0666689194362426 0.0
2.0690909621896503 2.0236911090177538 0.0
3.0502025505429771 1.5134753039451201 0.0
3.2633336699507294 -0.8032157567010453 0.0
2.9411124481597017 2.0972491346179534 0.0
3.1760440976140880 1.5146195911730125 0.0
2.7284696494436380 0.2931050843404915 0.0
2.8710763987869234 1.3379909660811686 0.0
3.0672603505335894 2.6859545156234104 0.0
2.2515599926342378 0.7710968595467261 0.0
1.8114634413218129 3.2630295976140502 0.0
2.1062912227446415 1.3459740280724544 0.0
3.1509006246366891 1.0125173297189380 0.0
1.8226248810198529 2.4042623606538642 0.0
1.6768296547328696 1.2707072350464002 0.0
2.3811182703993041 2.4971305692063228 0.0
2.6600337058662618 3.2372064703896628 0.0
3.4765449071496728 0.9748523572561051 0.0
2.9948932813836096 0.6128597056531594 0.0
3.0308648128243592 1.9163489899644217 0.0
3.2043206832255566 -0.5566017401835431 0.0
3.1122798216107057 1.6233289881085182 0.0
3.3471884430381311 1.2447819661903778 0.0
2.5501872135584884 -0.3749694061613320 0.0
2.2305070345293916 1.8378328947348566 0.0
2.8680560461924784 2.3820027664239123 0.0
2.0650559611291208 1.8508714967607103 0.0
3.0564656168116526 2.2406407220779165 0.0
3.1268751100823322 0.7695840453601113 0.0
2.1511507258121605 1.0970358071881203 0.0
1.7406224353830730 1.7350492993872715 0.0
3.1830119243651511 -0.2519056603390297 0.0
1.8366665148921502 2.2036517210669668 0.0
2.1583876671564872 1.0801244655800686 0.0
2.5975606925488313 0.4171126771414206 0.0
3.0223711834344575 1.9925936484491946 0.0
3.0295024992025370 0.3971278456700802 0.0
3.3238408737749436 0.0336843540182444 0.0
1.5788533597188310 3.1100142605135201 0.0
1.8583697269939223 1.4235376396400028 0.0
3.2320001009538397 1.5574941065769274 0.0
2.2341762431225680 1.4110487494959063 0.0
1.8087496209524565 2.7934941241548126 0.0
3.3253718929011442 1.8692806770408215 0.0
2.3427856308579300 -0.2231514054796020 0.0
3.3952082977765690 0.8032237001115348 0.0
2.9222595661810451 2.5729607039554852 0.0
2.8164757619436989 -1.0606227379817208 0.0
3.1365925621669932 1.9228130849790381 0.0
3.1242710863878358 1.4439385859202856 0.0
3.1909748249945133 0.3535247794260666 0.0
1.9671643205722444 3.0327318646586372 0.0
2.9249164669602812 3.2043758691228308 0.0
2.4275089571245383 3.9388050563285812 0.0
1.6025954407559404 1.4599362409700893 0.0
2.9000217599232290 2.1035422047193406 0.0
1.7970597845229295 0.9923228451342641 0.0
3.5341543963678799 0.4295693967741798 0.0
2.5107016348770417 2.1785570183796610 0.0
3.1838269394516021 2.3866923549315198 0.0
2.8378158526606336 0.8546854897158545 0.0
1.4695302941973007 1.1232206191883167 0.0
3.3662408091742471 1.5959387209061897 0.0
3.0905800459195198 0.0716824952105429 0.0
3.4767586524029155 1.3578195970594460 0.0
2.6155892145273172 1.3276480173753646 0.0
0.7646010062596742 3.4572653560239233 0.0
1.4998659059651431 1.3140933353860904 0.0
3.2685329825503704 1.3065277194015830 0.0
1.6476122058940534 1.4381001134857132 0.0
2.0741351334308278 0.8885585214690637 0.0
3.0502141586586182 1.7980888421063101 0.0
2.1684110843175528 -0.4286890730788582 0.0
3.1956366057793519 1.7637873040528758 0.0
3.0421961444004810 1.0853931549013252 0.0
3.0475043994484015 2.1130718135948272 0.0
2.9325617298139393 2.9214249092584628 0.0
3.3468206436215104 2.8909138852828562 0.0
2.1280713806116260 0.5609159144088283 0.0
1.6840329470384190 2.4601205013827006 0.0
3.0005780976426593 2.0093151385124086 0.0
3.2043761550671239 -0.7575638869260197 0.0
1.2140774821634503 3.3072403300552140 0.0
2.1870713448175825 0.8810964971363722 0.0
1.6076833948500211 0.7051220078985866 0.0
2.0076993835733803 0.1847977691816589 0.0
3.1237094429551249 1.8397202895075726 0.0
2.9258321413517954 2.2637475151193112 0.0
2.9905293524844851 1.8877757630742089 0.0
1.4085212423926923 1.9080189925946549 0.0
2.9564394399143654 2.1103138639607257 0.0
3.2820146603461287 1.7448101509005085 0.0
3.2938264278793512 1.5115508518474923 0.0
3.1850575130397294 1.2139942914261164 0.0
1.6251460266237507 2.3653042986157855 0.0
3.1904099642983863 0.1922774506398852 0.0
1.9717249471937215 0.8301784189123664 0.0
3.3224405723184924 1.0928684638505726 0.0
3.2698524036811900 1.0066195921147238 0.0
2.8373401664488580 2.2816561817250918 0.0
3.1121026176140885 1.4033536841470853 0.0
2.8824941953375496 2.0560328860462915 0.0
3.3580063320801128 2.1346363914290691 0.0
3.6054008238903985 1.5424728125663476 0.0
3.1856165085216133 1.6448255291715348 0.0
2.1401945835230540 0.2779477493511540 0.0
2.9830335233821255 2.0575139726574854 0.0
3.6408037120362891 1.1612029922313090 0.0
3.0158727754308794 1.9955938258122115 0.0
3.5200590287448725 0.1082485170951662 0.0
3.0962783717132436 -0.0920302659030259 0.0
1.2208487286687466 1.4064422652741257 0.0
2.4309566736439812 -0.9641866830813361 0.0
3.0807387751736628 1.9979834172591808 0.0