# vtk DataFile Version 3.0
LucasCarvalhoTCC Results
ASCII

DATASET POLYDATA
FIELD FieldData 1
TIME 1 1 double
1.3

POINTS 531 float
0.02430399999999999 0.16425 0.0
0.5913384 0.481878 0.0
1.30475 0.591832 0.0
0.774126 0.951272 0.0
0.04779564148251592 0.1966194329439859 0.0
0.0726092153537953 0.2279866320496896 0.0
0.09876577335895967 0.2582426022760065 0.0
0.1262817198684718 0.2872673048853742 0.0
0.1551671626852806 0.3149288071400502 0.0
0.1854238368919928 0.3410826624766006 0.0
0.2170424591499632 0.3655716640299072 0.0
0.2499995164635996 0.3882263409476824 0.0
0.2842534387828506 0.4088665906889567 0.0
0.3197403359862048 0.4273050841371062 0.0
0.3563695945475563 0.4433531534921038 0.0
0.3940201673622058 0.4568300511916809 0.0
0.4325386107291805 0.4675762214989666 0.0
0.4717406913237268 0.4754709112408955 0.0
0.5114182513144845 0.480453442081874 0.0
0.5513531678859215 0.4825464217651069 0.0
0.6182637923774223 0.5096055604109244 0.0
0.647389101376845 0.5350126187545199 0.0
0.6784752958296183 0.5579802184492302 0.0
0.7112421079139344 0.5784810076698811 0.0
0.7454110434104482 0.5965507527581431 0.0
0.7807301979183381 0.6122562812860965 0.0
0.8169827939052532 0.6256694297140926 0.0
0.853985522124928 0.6368498290413532 0.0
0.8915818964261243 0.6458353363890481 0.0
0.9296339776508085 0.6526379336565091 0.0
0.9680139759519513 0.6572432424840469 0.0
1.006596418266983 0.659612648128084 0.0
1.045251165872634 0.6596877658251245 0.0
1.083837680945672 0.657397570658483 0.0
1.122201320191055 0.6526688455666412 0.0
1.160173053543044 0.6454405726452737 0.0
1.197574286953346 0.6356824063786186 0.0
1.23422961949795 0.6234159704281613 0.0
1.26998758503999 0.6087366500005643 0.0
1.285086682927543 0.6256533177085738 0.0
1.263669745906668 0.6583917156018083 0.0
1.240480125919214 0.6898988493917133 0.0
1.215532715641304 0.7200329197235763 0.0
1.188869833862339 0.7486599839005789 0.0
1.160556835593143 0.7756559317113654 0.0
1.130680194163798 0.8009104211039757 0.0
1.099347083827048 0.8243335727704395 0.0
1.066684425336412 0.8458643604021228 0.0
1.03283497048792 0.8654772531176074 0.0
0.9979492572630678 0.8831824104874066 0.0
0.9621749986495024 0.8990166556695112 0.0
0.9256475378616493 0.9130272060048579 0.0
0.8884846540507749 0.9252538945090274 0.0
0.8507866567183312 0.935715378288671 0.0
0.8126405010322847 0.9444016349017643 0.0
0.7365055179612304 0.9396161853607135 0.0
0.699310855231089 0.9266666891603924 0.0
0.6626179171945521 0.9123577070090924 0.0
0.6264901449910028 0.8966765244755546 0.0
0.5909789825447118 0.8796450886595113 0.0
0.556124897941028 0.8613059841617771 0.0
0.5219601957009091 0.8417124664434518 0.0
0.4885110616878257 0.8209207172498462 0.0
0.4558007060429968 0.7989848675704875 0.0
0.4238520247653796 0.775953675763176 0.0
0.3926900138417566 0.7518687036338616 0.0
0.3623437622133722 0.7267636709390595 0.0
0.3328479550295906 0.7006647540504483 0.0
0.3042438201183181 0.6735915983461908 0.0
0.2765795358619001 0.6455588748284606 0.0
0.2499101143933102 0.6165781952942546 0.0
0.2242967982692083 0.5866601984136335 0.0
0.1998060807431611 0.5558166834807132 0.0
0.1765083808984156 0.5240625786010467 0.0
0.154476512720734 0.491417660368959 0.0
0.133784033184808 0.457907916333494 0.0
0.114503564227142 0.4235664945146766 0.0
0.09670517293008124 0.3884342245925089 0.0
0.0804548910754031 0.3525597611689231 0.0
0.06581337946329963 0.3159993090744527 0.0
0.05283482490365372 0.2788161107032479 0.0
0.0415660226296666 0.2410796291505872 0.0
0.03204569406625649 0.2028646095712164 0.0
0.5272009874003867 0.6419624505772817 0.0
0.7421848286576707 0.7716726266421574 0.0
0.8789503364783713 0.7829234141383637 0.0
0.6149390992905563 0.7449438030688011 0.0
0.4064556042659638 0.5942834991165423 0.0
0.9875021850865396 0.7666507358101158 0.0
0.3188065960661005 0.539594034984892 0.0
0.61365100263957 0.6399487878797632 0.0
0.8049090660915541 0.8464379870891131 0.0
0.7099820328572021 0.6828840522539854 0.0
0.5239467234991928 0.7406922291088611 0.0
0.8154056325591208 0.7211774015928547 0.0
0.6676178829014909 0.8152713180209475 0.0
0.4416080359619968 0.674360953773491 0.0
0.489443615375965 0.5654986742123573 0.0
1.076665773779852 0.7387182918829318 0.0
0.250390543112057 0.4877450112830265 0.0
0.5736819937919005 0.5790366884881447 0.0
0.7263706755366466 0.8615301097563091 0.0
0.940143307772686 0.8233944909985552 0.0
0.927065543677544 0.7236459161626674 0.0
0.8744389806957806 0.8609114380468947 0.0
0.336888362650554 0.6081958070931937 0.0
0.2030757334857187 0.4383942902513459 0.0
0.3861483329720647 0.5255533415902591 0.0
0.5621001921466506 0.7923778419149285 0.0
0.6822897332295245 0.7428043323059399 0.0
0.5764061681675353 0.6881266532454204 0.0
1.129195449682892 0.7163224153578123 0.0
0.8157794419559141 0.7831214907157077 0.0
0.3806644703311284 0.6554275822782399 0.0
0.7695737871052837 0.669593045341503 0.0
0.4699375460410929 0.6217118815516158 0.0
0.6830867370872363 0.630350317562806 0.0
1.040416897214502 0.7929392348941093 0.0
0.4604428393605979 0.7321209818568342 0.0
0.8729552856459739 0.7015083313474691 0.0
1.017010765275644 0.7166925631396708 0.0
0.6458785458483771 0.6946878992565794 0.0
0.7733575582969163 0.8941098392103913 0.0
0.4457537579383052 0.5273353624588528 0.0
0.163830623786951 0.3903175742448083 0.0
0.6095823984734953 0.8256600013628639 0.0
0.2618074352614998 0.5435604438425528 0.0
0.6287880420949764 0.5875838132975476 0.0
0.3100402147222924 0.4835410260423071 0.0
0.5422177893302824 0.5343158927797464 0.0
0.9964262112680041 0.8213447667248638 0.0
0.4971609598823845 0.6906859160718212 0.0
0.5740517260168769 0.633982031239429 0.0
0.7423299505107201 0.7218768583704394 0.0
0.767147744476665 0.819658485932403 0.0
0.9427329070375209 0.7774595780066723 0.0
0.8375285793481674 0.8869398470561132 0.0
0.2879426409425497 0.5872676364411625 0.0
0.6797562629663748 0.8647676397847667 0.0
1.171674168522591 0.6949964056806914 0.0
0.5261010885606964 0.6055079299963303 0.0
0.7081534744446967 0.8078672678314597 0.0
0.9681672688626206 0.705385299758921 0.0
0.7364069054947873 0.6432919177737106 0.0
0.363826821075015 0.5678764295233764 0.0
0.826170216989844 0.6605791783255148 0.0
0.1284439337099834 0.3602715082199688 0.0
0.518140828090112 0.783905985497134 0.0
0.8452908336054504 0.8167586152211004 0.0
0.2015204468558833 0.492088055688788 0.0
0.4005883523205732 0.7121294304856254 0.0
0.3551392316798573 0.4864133323669936 0.0
0.2501727034998737 0.4443035857235296 0.0
0.857938396055507 0.7390317828783199 0.0
0.9245301815433076 0.8668102132501951 0.0
0.5702050292970205 0.7323438487067678 0.0
1.111607633075016 0.759318252473435 0.0
0.6317193755596126 0.7853891653733797 0.0
0.7921381265818805 0.7497379312370454 0.0
1.088942426366261 0.7015435214091311 0.0
0.5818207607488639 0.5352340257544296 0.0
0.4203532416309484 0.6369649631143086 0.0
0.4854818714173937 0.5131439318707094 0.0
0.4475429831528036 0.5690430472086269 0.0
0.8968753306595262 0.8225547516037004 0.0
0.6339557898063448 0.8543470494763272 0.0
0.3416564411796998 0.6516449771136894 0.0
1.082970576264455 0.7856036465430698 0.0
0.2255204648032354 0.5229464838393291 0.0
0.7335043541589261 0.9012744999286941 0.0
0.9097052989734319 0.6921177492721042 0.0
0.5363428275528405 0.6992389299864537 0.0
0.9657777897300287 0.8588269742066746 0.0
1.025947476617909 0.7556651119714124 0.0
0.1090829970454354 0.3226173037985549 0.0
0.4836644525169279 0.7663103281018557 0.0
0.6910856326166581 0.777867529208468 0.0
0.6694391877434097 0.5946719355048008 0.0
0.2954883530575775 0.4501042133334518 0.0
0.6746032498128595 0.6643957640016517 0.0
1.054636636429828 0.6974583960183274 0.0
0.8939255235163368 0.7470597914537064 0.0
0.3749741568555516 0.6190655430398917 0.0
1.204101441114554 0.6801433534918062 0.0
0.6130053345415899 0.6785345531932346 0.0
0.7679719108452487 0.8562682874000032 0.0
0.9710820219997449 0.8008372590855476 0.0
0.1608022352294362 0.4242591696906621 0.0
0.2865399820604418 0.5141369963640697 0.0
0.1962258775846918 0.4008383427744516 0.0
0.6210920174972845 0.5516143721732873 0.0
0.4843009180093644 0.6583977883024127 0.0
0.5695029195102991 0.8267073580550881 0.0
0.9562891163300477 0.7436031251145003 0.0
0.4174190173896447 0.5044019081507806 0.0
0.410860431802698 0.5535781448116232 0.0
0.8709320861791604 0.9002602580953145 0.0
0.427354757192076 0.7399041791280969 0.0
0.7107884943357746 0.7172753954970394 0.0
1.030382288537246 0.8267335242583146 0.0
0.7737440530215844 0.7115751739064536 0.0
0.8042035044852396 0.9123190309183211 0.0
0.0480920891272324 0.2181807374272496 0.0
0.3695079235280397 0.6886893012630373 0.0
0.773516204411121 0.7830673827025234 0.0
0.302776671534508 0.6210168062901616 0.0
0.7150573728414059 0.6149413270404035 0.0
0.5863276441271683 0.769748656022605 0.0
1.143752049005473 0.6780480059671409 0.0
0.6477132714923303 0.7318578097016951 0.0
0.8380052680878572 0.8531154611905379 0.0
0.5966224054445893 0.6051703156405629 0.0
0.3207240819522855 0.5772784374275386 0.0
0.3520131451607586 0.5263918604440553 0.0
0.8573528491808811 0.6709738722470224 0.0
0.1797236573643203 0.460867988842514 0.0
0.5540828191547277 0.6661566975721369 0.0
1.158039843450239 0.7357536542887966 0.0
0.08638006908591334 0.286237566592474 0.0
0.790861820497242 0.6466611559014377 0.0
0.5362079962218838 0.8121454698907893 0.0
0.9405172130232713 0.6862060282668497 0.0
0.6039359324506977 0.711463595189489 0.0
0.4440093493753478 0.6096873538428137 0.0
0.5500746279087338 0.7620941994763282 0.0
0.2578504496023611 0.5739900063885278 0.0
0.502526452350101 0.6209820553182169 0.0
0.6799833858912959 0.7033681517905728 0.0
0.7183487148906835 0.7518430858176317 0.0
0.8006701240044786 0.8118713608014352 0.0
0.1304684854221093 0.3934039266496895 0.0
1.00789495394612 0.7937868725857601 0.0
0.696960396255943 0.893370944718147 0.0
0.8258315165019564 0.7538365084989149 0.0
0.8462950259502577 0.775614153529746 0.0
0.4082018839227037 0.6749460331934272 0.0
0.7025889307788081 0.8378536687159448 0.0
0.4666676520109517 0.6984557076050861 0.0
[...]
POINT_DATA 531

VECTORS Velocity float
0.0000000000000000 1.0000000000000000 0.0
0.0000000000000000 1.0000000000000000 0.0
2.6384144560419820 -0.9588604606738066 0.0
1.9256910106354164 1.0445863933223556 0.0
0.0000000000000000 1.0000000000000000 0.0
0.0000000000000000 1.0000000000000000 0.0
0.0000000000000000 1.0000000000000000 0.0
0.0000000000000000 1.0000000000000000 0.0
0.0000000000000000 1.0000000000000000 0.0
0.0000000000000000 1.0000000000000000 0.0
0.0000000000000000 1.0000000000000000 0.0
0.0000000000000000 1.0000000000000000 0.0
0.0000000000000000 1.0000000000000000 0.0
0.0000000000000000 1.0000000000000000 0.0
0.0000000000000000 1.0000000000000000 0.0
0.0000000000000000 1.0000000000000000 0.0
0.0000000000000000 1.0000000000000000 0.0
0.0000000000000000 1.0000000000000000 0.0
0.0000000000000000 1.0000000000000000 0.0
0.0000000000000000 1.0000000000000000 0.0
0.0000000000000000 0.0000000000000000 0.0
0.0000000000000000 0.0000000000000000 0.0
0.0000000000000000 0.0000000000000000 0.0
0.0000000000000000 0.0000000000000000 0.0
0.0000000000000000 0.0000000000000000 0.0
0.0000000000000000 0.0000000000000000 0.0
0.0000000000000000 0.0000000000000000 0.0
0.0000000000000000 0.0000000000000000 0.0
0.0000000000000000 0.0000000000000000 0.0
0.0000000000000000 0.0000000000000000 0.0
0.0000000000000000 0.0000000000000000 0.0
0.0000000000000000 0.0000000000000000 0.0
0.0000000000000000 0.0000000000000000 0.0
0.0000000000000000 0.0000000000000000 0.0
0.0000000000000000 0.0000000000000000 0.0
0.0000000000000000 0.0000000000000000 0.0
0.0000000000000000 0.0000000000000000 0.0
0.0000000000000000 0.0000000000000000 0.0
0.0000000000000000 0.0000000000000000 0.0
2.6786911066917627 -1.7957155944845475 0.0
3.6719167020655963 -2.3081202982220548 0.0
3.7463179808910048 -2.2204118712214918 0.0
3.7186687133144440 -1.9089189481190061 0.0
3.6698571564417968 -1.5854323338567606 0.0
3.6481271769228609 -1.2155238077797170 0.0
3.6309225541691372 -0.9700541210928283 0.0
3.6134199376381990 -0.7221554393016710 0.0
3.4984198138058344 -0.4066432358581088 0.0
3.4677778070206506 -0.1767701629987379 0.0
3.3927730465198165 0.0515008864878152 0.0
3.2685642698483837 0.2703482957694101 0.0
3.1877488602020412 0.4500656782587422 0.0
3.0108237568048009 0.6211652461162335 0.0
2.6112834751178773 1.0336267389839513 0.0
1.9900781272469721 0.9208888202279699 0.0
0.0000000000000000 0.0000000000000000 0.0
0.0000000000000000 0.0000000000000000 0.0
0.0000000000000000 0.0000000000000000 0.0
0.0000000000000000 0.0000000000000000 0.0
0.0000000000000000 0.0000000000000000 0.0
0.0000000000000000 0.0000000000000000 0.0
0.0000000000000000 0.0000000000000000 0.0
0.0000000000000000 0.0000000000000000 0.0
0.0000000000000000 0.0000000000000000 0.0
0.0000000000000000 0.0000000000000000 0.0
0.0000000000000000 0.0000000000000000 0.0
0.0000000000000000 0.0000000000000000 0.0
0.0000000000000000 0.0000000000000000 0.0
0.0000000000000000 0.0000000000000000 0.0
0.0000000000000000 0.0000000000000000 0.0
0.0000000000000000 0.0000000000000000 0.0
0.0000000000000000 0.0000000000000000 0.0
0.0000000000000000 0.0000000000000000 0.0
0.0000000000000000 0.0000000000000000 0.0
0.0000000000000000 0.0000000000000000 0.0
0.0000000000000000 0.0000000000000000 0.0
0.0000000000000000 0.0000000000000000 0.0
0.0000000000000000 0.0000000000000000 0.0
0.0000000000000000 0.0000000000000000 0.0
0.0000000000000000 0.0000000000000000 0.0
0.0000000000000000 0.0000000000000000 0.0
0.0000000000000000 0.0000000000000000 0.0
0.0000000000000000 0.0000000000000000 0.0
3.4847114756250321 2.3759164029543927 0.0
3.8198689973607642 1.7355139266428519 0.0
3.7307504900482247 0.9825848928414394 0.0
3.6437400266610163 2.0926356062402718 0.0
3.6145649501724466 2.8405426816606765 0.0
3.6526312813584529 0.1802144257868773 0.0
3.8588414217352121 3.4811093968601114 0.0
3.4944535302547823 2.3515004137622477 0.0
3.4915922950701641 1.5526860141720666 0.0
3.5796922673547429 1.7194499877859619 0.0
3.0751990700293703 2.0143053185268016 0.0
3.6074096130018560 1.2906325043074134 0.0
3.4174556889314931 1.7320234221023003 0.0
3.1774925289876621 2.4706853730300251 0.0
3.2528688270532653 2.3275546011687753 0.0
3.3063882335872834 -0.3742452037647649 0.0
3.5799240463001003 3.8931234160388843 0.0
2.6930382986198467 2.1824269110259489 0.0
3.2354457767185769 1.4592996118362185 0.0
3.5670438619348608 0.5074627095293521 0.0
2.9441505715681298 0.4443064144328263 0.0
3.3433436903426199 0.9944395099147326 0.0
2.8513376509045156 2.7486065863274636 0.0
3.4877996715931583 4.5930606597825010 0.0
3.5565128087411773 2.5808901013599539 0.0
2.6568498082057586 1.5678278828785932 0.0
3.8642276383306688 1.9850717104461699 0.0
3.5814787758779469 2.3426997324017158 0.0
3.0578755249064669 -0.7443301164558075 0.0
3.7317994208439487 1.4290432731757521 0.0
2.6128319981374242 2.2418302706080109 0.0
2.8748208637826091 1.1199887265071089 0.0
3.4943861795936750 2.5164285133715727 0.0
2.9222965058924677 1.5146594363763297 0.0
3.6583296780355199 -0.1879277991562830 0.0
2.3267594835752288 1.6715289036930208 0.0
2.8083616579607220 0.7224799568098769 0.0
2.6172151692643548 0.1076057416741507 0.0
3.7239581154028181 2.1996115866113648 0.0
2.8647845404151853 1.7368327086342230 0.0
2.8512071140325728 2.3645519704651332 0.0
2.9357551170490859 4.7378032569250301 0.0
2.7377160053479135 1.4514032498256406 0.0
2.5471886769602792 2.9634075768655954 0.0
2.4327998200960139 1.8540877653880530 0.0
3.2128987938006865 3.4718567065270531 0.0
2.0994722576622196 1.8188477105571972 0.0
3.5798922002296085 0.0932259145811211 0.0
3.4498562086938005 2.3081041620329179 0.0
3.4466328432060753 2.3624308757517891 0.0
3.8120244490770010 1.7027546970298533 0.0
3.7118485535790269 1.7057244528783402 0.0
3.6744073805176156 0.4715027675269118 0.0
3.0186213465682123 1.3446545545600539 0.0
1.7160914469713631 1.7470478923516031 0.0
2.6562835251089338 1.2672610593998996 0.0
2.9799694631813112 -0.9575161069495975 0.0
3.3952089899786939 2.3676484074649342 0.0
3.7301802741406687 1.8544846551784848 0.0
1.9095371850158129 0.1427045032419181 0.0
2.2329162761833614 1.1238038043515903 0.0
3.6610462036941458 3.1470499925412154 0.0
1.4271994737569718 0.5304275038807801 0.0
1.8315621403886264 3.2597794401328701 0.0
1.7509297704007067 1.0449635591848994 0.0
3.5803151601109411 1.2301172669816376 0.0
1.8392723963524737 2.2826125862141828 0.0
1.2737133060424797 0.8957585673642584 0.0
2.0739807195856694 2.3704057782280552 0.0
2.7587847559957943 3.3859436384167858 0.0
3.6112318794896217 1.0686446809559227 0.0
3.3574112703134698 0.6120884400972328 0.0
3.4939407745318021 2.2437781435701853 0.0
3.6651946389743624 -0.8858448813710422 0.0
3.4529876855144530 1.8281442791034193 0.0
3.8144667634753686 1.4722637073747449 0.0
1.9292144688810462 -0.3235162483205867 0.0
1.6499967012225329 1.6072089822908910 0.0
3.3174032265073894 2.6695655679313828 0.0
1.4232398501671977 1.7824149657693351 0.0
3.4646116115586105 2.5377383429147367 0.0
3.5475007925037922 0.8642476493410957 0.0
1.7559367421491230 0.9291686159948686 0.0
1.4484046244439972 1.4299125760431792 0.0
3.7103010014235127 -0.5622680017057913 0.0
1.8289441804506517 1.8875489250409787 0.0
1.7619513186097437 0.9312960575740147 0.0
1.7104374989667852 0.1998010588886110 0.0
3.5431465770557296 2.3238886626542086 0.0
3.4450422060650330 0.2912336315153786 0.0
3.4434071282307985 -0.1374592720586628 0.0
1.5934169598109305 3.1019104116214860 0.0
1.4440373621209750 1.1964762524655876 0.0
3.8191531101798191 1.9090252723990973 0.0
1.5054405600685323 0.9296385827080421 0.0
1.5005393999345631 2.7718181062824274 0.0
3.5673126905665931 2.0322966113590781 0.0
1.6518315290574981 -0.2546220367056887 0.0
3.6064306349692674 0.8070746023089900 0.0
3.1520020655798029 2.6321523140572909 0.0
2.7116275658379672 -1.3532347568745946 0.0
3.6156721742797528 2.2921959817523438 0.0
3.4636257833419375 1.7859255931797355 0.0
3.6433599092492051 0.2751023030107744 0.0
1.9998784999145325 3.0553313419520807 0.0
3.5685997781297325 3.6953130641623249 0.0
2.4437443388214883 4.0338897245985379 0.0
0.9982670534195195 0.9460877913906376 0.0
3.4530830379072461 2.4491763170733551 0.0
1.3233268503094016 0.6982021599021561 0.0
3.3469851617677415 0.3272115936529988 0.0
2.1201487479576802 2.1521880381678549 0.0
3.5021196190195254 2.7068073279722928 0.0
2.9575293823368045 0.9413952996519990 0.0
1.0248718328851809 0.7585712149743573 0.0
3.8611223381494617 1.8190178990627481 0.0
3.5879438580769762 -0.1424819475723268 0.0
3.6466891366510139 1.4818878013185399 0.0
2.4300057082203690 1.5003483998336478 0.0
0.7641784040424044 3.4574474113854166 0.0
1.1151886504350570 0.9966951125916546 0.0
3.7685278729823755 1.5881557704365741 0.0
1.3626647374437253 1.1128129216314873 0.0
1.3814897089316629 0.5418188296046791 0.0
3.3341377977663789 1.9756208919936860 0.0
1.5761943023438822 -0.2915472016947438 0.0
3.7802894084507486 2.1260035493265970 0.0
3.4399939580081997 1.3447150832951118 0.0
3.1553647355211809 2.2606482312408511 0.0
2.9507000134447763 3.0640787214503744 0.0
3.8231567967193856 3.2098848885345892 0.0
1.2803854306261764 0.3763532919666840 0.0
1.7238311235851775 2.4132043174828430 0.0
3.5466194535574989 2.3464916039393939 0.0
3.6223896712399406 -1.1810673607072453 0.0
1.2131357768797455 3.3076116248834633 0.0
1.4236033412596625 0.5674422340731607 0.0
1.1891914490896165 0.4764836056791920 0.0
1.2524626700832717 0.0693680234897998 0.0
3.6686177986175723 2.2194477640771462 0.0
3.5235774086955272 2.6767030637199607 0.0
3.0235551711111661 1.8391145358165315 0.0
1.0735621639957884 1.5543944400171918 0.0
3.4855992915600527 2.4162659833979339 0.0
3.7907652668700598 2.0873824971861614 0.0
3.8611936070761788 1.8287654054140619 0.0
3.6508597952008888 1.4960294280382664 0.0
1.6340328525731938 2.3194153259700325 0.0
3.6733437573966290 0.0370479982854008 0.0
1.4806512495899822 0.7028883225463937 0.0
3.7554169267462871 1.3302089813379607 0.0
3.7195736324617918 1.1992349623143483 0.0
2.6941820417826565 2.0115548491728648 0.0
3.2986455508636543 1.5330406179897931 0.0
3.1502803603509286 2.2155988446871686 0.0
3.1749101156539035 2.0339362343669749 0.0
3.4933868567181201 1.6412557946111319 0.0
3.7876485970239484 2.0254971765872689 0.0
1.4062277915107597 0.2077692813013992 0.0
2.9785053653076972 2.0830928138170126 0.0
2.9470113885766973 0.9712774584497021 0.0
2.9722014907405860 2.1089804440551370 0.0
2.9864246192853532 0.0396190476297598 0.0
3.6627103526001155 -0.3528637576738222 0.0
0.9632583981383371 1.0083666784556991 0.0
2.3227389962795337 -1.0671886354593516 0.0
3.5528668349617796 2.3382243955963502 0.0
3.0155217005373030 1.5659824489180183 0.0
3.1299873311767521 1.5990282757510716 0.0
3.4714584022457680 3.9985569364916800 0.0
0.6622035867233925 1.6524861564810673 0.0
3.4864832151068001 2.4785477763517672 0.0
1.5257896517307445 1.8284196354007702 0.0
3.1254675590121397 -0.5733264552475502 0.0
3.6861608874974952 0.7490067054280622 0.0
3.3642039859307200 2.3218978121796678 0.0
0.8027445115283366 0.6387088306665538 0.0
1.1776464191993579 2.2286997330962000 0.0
3.1341083759442760 2.8281237078102111 0.0
1.7137244553265423 2.9251360869355416 0.0
1.0690976853611460 1.8779034870693121 0.0
0.9892265344616754 1.5923807001203059 0.0
1.6645687840982570 3.0814764688336282 0.0
1.6212060555934071 1.2367562871213200 0.0
2.1899906810485228 -1.4152865434957325 0.0
2.3881354870276588 1.8548680318600677 0.0
0.8529150902804582 0.3659691885342571 0.0
0.9066235416229390 0.6868377834747001 0.0
3.8194838478888911 3.4302195797463915 0.0
1.4542194325253539 -0.0666175385774297 0.0
3.0973646516400151 0.7580466926850624 0.0
3.4852881579974526 0.0748028631336767 0.0
3.6342356522151924 2.2632185195261583 0.0
1.1250729332094156 3.3292133925752596 0.0
3.1201890949275861 0.7447943792685476 0.0
0.7494758976803760 0.4595166089541241 0.0
3.5935834272718750 -0.2258469945166486 0.0
3.4337586367112167 2.5986660221075812 0.0
1.0149417414489339 -0.0068503515137005 0.0
3.0215871443086910 -0.1589909106418547 0.0
3.0463314766569809 1.6688292202518455 0.0
3.6728945582290145 -1.5681304224091179 0.0
1.0943340613017432 0.1314934894262514 0.0
2.8543845241100385 1.7131140536415226 0.0
2.9710650576333819 2.2768540234294776 0.0
2.4705746918448033 1.9039639584093926 0.0
3.5228255728817408 2.3694669986183134 0.0
3.7275759650774822 1.7737955836112820 0.0
2.9243744987805500 1.1565933572638354 0.0
3.6401134390246059 3.7805864647219170 0.0
3.7887061715057957 1.7582596781775455 0.0
1.1342522253042218 0.6943358414503005 0.0
3.1332979782340264 3.3091120653396362 0.0
3.0110932561156503 1.6926754210207107 0.0
3.8106497529645722 1.8519870859631706 0.0
3.8344547511048508 1.6601079618445822 0.0
3.1346175302993911 2.3007510658717032 0.0
3.4592220796141162 2.3752614465729347 0.0
1.3325636608108375 -0.7607785237778947 0.0
3.6010776988764106 0.6570374790087192 0.0
3.5426565300990744 0.2643221038001211 0.0
1.6703350175329748 4.0683159825269399 0.0
2.5054328701232325 2.0602837069413975 0.0
0.8269059208353416 0.6210528795767859 0.0
3.5100971562128893 2.3631245504646925 0.0
3.8089172531361171 1.7452275650183156 0.0
3.7254115211741454 1.0190322179357707 0.0
3.5893977538909390 2.0588703361352545 0.0
3.6300525015290432 2.8067316726547054 0.0
3.6547253054359872 0.2139196763363463 0.0
3.8705602853512833 3.4579509975334051 0.0
3.5612960929087008 2.3940707123768661 0.0
3.4103222772993247 1.5725114515596714 0.0
3.6648657696734990 1.7692156492638658 0.0
2.9952011568664232 1.9525523592566130 0.0
3.6873235639961588 1.3260742636437397 0.0
3.3252247577977085 1.6906235540176313 0.0
3.1234177709095801 2.4085773272982531 0.0
3.3337081422179704 2.3280285321725209 0.0
3.3106749483471432 -0.3604051749288845 0.0
3.5854738822355983 3.8804690975957699 0.0
2.7790480878560815 2.2177328082337784 0.0
3.1384856080634007 1.4348460906580316 0.0
3.5177530762100386 0.5416074625856675 0.0
3.0067370595065444 0.4689891334787216 0.0
3.2708819398566047 1.0222643358450749 0.0
2.8264893274249978 2.7025069211094674 0.0
3.4900493077776975 4.5906747344172496 0.0
3.6069163433946745 2.5781418994069876 0.0
2.5653698715287128 1.5140388513226417 0.0
3.8653345631449736 1.9901366188727867 0.0
3.5728875300321596 2.3272187662766091 0.0
3.0588851889769342 -0.7421491836270213 0.0
3.7225416960932107 1.4587113211909910 0.0
2.5671800305135615 2.1830764052595319 0.0
2.9706827169247529 1.1590993291770446 0.0
3.5134323017835802 2.4891330654374593 0.0
3.0224931156531469 1.5690137138157421 0.0
3.6403268268665094 -0.1627931132764498 0.0
2.2500199783991937 1.6154392597388325 0.0
2.8944577641588465 0.7476364944583908 0.0
2.6458393504988309 0.1229522252875345 0.0
3.7588540084252964 2.2203732105317773 0.0
2.7801044839341045 1.7310627142086326 0.0
2.9253505557087003 2.3701026028813637 0.0
2.9360533012319316 4.7374904099212802 0.0
2.6456701105780245 1.4044854548279757 0.0
2.5402607991649568 2.9420146790799868 0.0
2.5213026630190458 1.9168231296522793 0.0
3.2363500028540346 3.4759638049608692 0.0
2.1833125949106194 1.8338508050525666 0.0
3.5406599732989088 0.1233013139266575 0.0
3.3923311868029611 2.2551482328711314 0.0
3.4988325717125424 2.3761418043782450 0.0
3.8702549271336069 1.7309527090457464 0.0
3.6473476638933962 1.7121637549004431 0.0
3.6644914075388622 0.5054017579995876 0.0
2.9531795213813314 1.3576098414831577 0.0
1.6983619956450173 1.7230268793173922 0.0
2.5645334531652697 1.2273485746785044 0.0
2.9802873390273188 -0.9558997094695179 0.0
3.4517869470048708 2.3744477494965501 0.0
3.6585154435841094 1.8285917633670097 0.0
1.9571684357733123 0.1604401568271595 0.0
2.3184775306597176 1.1640681379794870 0.0
3.6738914255184012 3.1177545237127751 0.0
1.4940756963331221 0.5542641833327684 0.0
1.8316089572748706 3.2597090763730350 0.0
1.6833724237873040 1.0007701631358903 0.0
3.5283268441210982 1.2632027190238335 0.0
1.8374774127095868 2.2756549572772804 0.0
1.2275506958183859 0.8573388450339999 0.0
2.1085880535536181 2.3733249697520842 0.0
2.7684973373099724 3.3849490759464107 0.0
3.6696389834099454 1.1041323190012342 0.0
3.3056250508538092 0.6362315425893029 0.0
3.4369367102722199 2.1966417503601412 0.0
3.6627036403034272 -0.8803827964499462 0.0
3.3659960774552311 1.7850363533432259 0.0
3.8513375547306579 1.4994406228123274 0.0
1.9349208622619061 -0.3202105730467527 0.0
1.7173515190126318 1.6373390526367173 0.0
3.2925307782641360 2.6157314598589121 0.0
1.4848924533345138 1.7895556062675744 0.0
3.5230925358430154 2.5233454442023935 0.0
3.4922984247664410 0.9034983274716719 0.0
1.6837077112910712 0.8929880547774761 0.0
1.4172204073419132 1.3906060228191068 0.0
3.7035901573188639 -0.5487759015998508 0.0
1.8248776098932598 1.8754666152696275 0.0
1.7001342259506194 0.9183064620406077 0.0
1.7708073646847282 0.2151709663147554 0.0
3.4958426723472686 2.2823054551020490 0.0
3.4076125870569656 0.3120846865275855 0.0
3.4501519790215971 -0.1075091553579959 0.0
1.5933961098677154 3.1019301063775053 0.0
1.3820848693162322 1.1461118343425536 0.0
3.7682014582144410 1.8926187928368268 0.0
1.5783626650469817 0.9733108232850691 0.0
1.5144744163378516 2.7763035994033571 0.0
3.6495407031329776 2.0784297408615888 0.0
1.6662018653990680 -0.2476110053221610 0.0
3.6416321715506408 0.8424360769159456 0.0
3.1293058201361994 2.5746615744940127 0.0
2.7116349613265149 -1.3531648080958063 0.0
3.6468526866469193 2.3062542408107274 0.0
3.3712774757146606 1.7809209869319704 0.0
3.6136145855133628 0.3061184073103154 0.0
2.0002409217161388 3.0541474072925663 0.0
3.5788536050887960 3.6814774475637932 0.0
2.4449466371136146 4.0335988921733898 0.0
1.0492357391726062 0.9894255659133351 0.0
3.4325485618310507 2.4071417048332853 0.0
1.2610781520481567 0.6659748715980308 0.0
3.3841511592308606 0.3560423392002834 0.0
2.1731061094693742 2.1584633814284198 0.0
3.5579258424594653 2.6944399718394259 0.0
2.9089327833635861 0.9597027283618325 0.0
0.9794937101325107 0.7233159014577756 0.0
3.9114723459781122 1.8497272841254382 0.0
3.5635055793400774 -0.1245942614832050 0.0
3.7256136127881798 1.5177758191646951 0.0
2.3788119775776808 1.5029876052501794 0.0
0.7641784040424047 3.4574474113854166 0.0
1.0776834517064673 0.9589999820186074 0.0
3.7522093409331516 1.6054128215055361 0.0
1.3419304199517113 1.0862855772478179 0.0
1.4532876775201975 0.5738749277849186 0.0
3.2474509612214821 1.9243408520271175 0.0
1.5780706514813214 -0.2912699261657479 0.0
3.7757534237140988 2.1262756593721028 0.0
3.3550413369050451 1.3710018764532224 0.0
3.2399069387894386 2.3069543311583827 0.0
2.9325431355248441 3.0260323787655974 0.0
3.8626529383843922 3.2044372860189738 0.0
1.3420569591868221 0.3941984809318924 0.0
1.7234791700175875 2.4101801931627000 0.0
3.5529485039110367 2.3345499446486500 0.0
3.6217756130617413 -1.1786336399393214 0.0
1.2131265606721593 3.3076139262386564 0.0
1.4914931481159339 0.5955526372277171 0.0
1.1279267379974811 0.4489707156745582 0.0
1.3038297432606951 0.0782262035878618 0.0
3.6582613675351281 2.2029811674969415 0.0
3.5450789853370792 2.6418429439381810 0.0
2.9380120729086507 1.7814142206851775 0.0
1.0619917436933894 1.5337893682240920 0.0
3.5131981960495802 2.3972100968891468 0.0
3.8355835151604976 2.1149591114479716 0.0
3.8696304193543019 1.8391663833936742 0.0
3.5998123498464638 1.5164762772058478 0.0
1.6341586977608979 2.3191928597068503 0.0
3.6509517886658465 0.0718156619299170 0.0
1.4204227813315706 0.6799631670097055 0.0
3.7893251204484684 1.3619334927433753 0.0
3.7211672829177789 1.2372674527784451 0.0
2.6385959935778711 1.9517799701998917 0.0
3.2045575896285654 1.5035765504312824 0.0
3.0861098074283357 2.1566148164788697 0.0
3.2716747343066443 2.0922879736171711 0.0
3.5861448516002681 1.6804087878215352 0.0
3.7302862517479620 2.0048696111877575 0.0
1.4410655971391921 0.2177630806202562 0.0
3.0673439347210278 2.0960952936732431 0.0
3.0412680046919087 1.0081429639014645 0.0
2.8950158545658073 2.0535270288452345 0.0
3.0225596248300164 0.0643306145365361 0.0
3.6491133939983160 -0.3404684723838597 0.0
0.9558386789614187 0.9954320073688099 0.0
2.3226866082205775 -1.0672677980058487 0.0
3.5891874205979604 2.3510700978596613 0.0