# vtk DataFile Version 3.0
LucasCarvalhoTCC Results
ASCII

DATASET POLYDATA
FIELD FieldData 1
TIME 1 1 double
0.1

POINTS 531 float
0.02430399999999999 0.16425 0.0
0.5913384 0.481878 0.0
1.30475 0.591832 0.0
0.774126 0.951272 0.0
0.04779564148251592 0.1966194329439859 0.0
0.0726092153537953 0.2279866320496896 0.0
0.09876577335895967 0.2582426022760065 0.0
0.1262817198684718 0.2872673048853742 0.0
0.1551671626852806 0.3149288071400502 0.0
0.1854238368919928 0.3410826624766006 0.0
0.2170424591499632 0.3655716640299072 0.0
0.2499995164635996 0.3882263409476824 0.0
0.2842534387828506 0.4088665906889567 0.0
0.3197403359862048 0.4273050841371062 0.0
0.3563695945475563 0.4433531534921038 0.0
0.3940201673622058 0.4568300511916809 0.0
0.4325386107291805 0.4675762214989666 0.0
0.4717406913237268 0.4754709112408955 0.0
0.5114182513144845 0.480453442081874 0.0
0.5513531678859215 0.4825464217651069 0.0
0.6182637923774223 0.5096055604109244 0.0
0.647389101376845 0.5350126187545199 0.0
0.6784752958296183 0.5579802184492302 0.0
0.7112421079139344 0.5784810076698811 0.0
0.7454110434104482 0.5965507527581431 0.0
0.7807301979183381 0.6122562812860965 0.0
0.8169827939052532 0.6256694297140926 0.0
0.853985522124928 0.6368498290413532 0.0
0.8915818964261243 0.6458353363890481 0.0
0.9296339776508085 0.6526379336565091 0.0
0.9680139759519513 0.6572432424840469 0.0
1.006596418266983 0.659612648128084 0.0
1.045251165872634 0.6596877658251245 0.0
1.083837680945672 0.657397570658483 0.0
1.122201320191055 0.6526688455666412 0.0
1.160173053543044 0.6454405726452737 0.0
1.197574286953346 0.6356824063786186 0.0
1.23422961949795 0.6234159704281613 0.0
1.26998758503999 0.6087366500005643 0.0
1.285086682927543 0.6256533177085738 0.0
1.263669745906668 0.6583917156018083 0.0
1.240480125919214 0.6898988493917133 0.0
1.215532715641304 0.7200329197235763 0.0
1.188869833862339 0.7486599839005789 0.0
1.160556835593143 0.7756559317113654 0.0
1.130680194163798 0.8009104211039757 0.0
1.099347083827048 0.8243335727704395 0.0
1.066684425336412 0.8458643604021228 0.0
1.03283497048792 0.8654772531176074 0.0
0.9979492572630678 0.8831824104874066 0.0
0.9621749986495024 0.8990166556695112 0.0
0.9256475378616493 0.9130272060048579 0.0
0.8884846540507749 0.9252538945090274 0.0
0.8507866567183312 0.935715378288671 0.0
0.8126405010322847 0.9444016349017643 0.0
0.7365055179612304 0.9396161853607135 0.0
0.699310855231089 0.9266666891603924 0.0
0.6626179171945521 0.9123577070090924 0.0
0.6264901449910028 0.8966765244755546 0.0
0.5909789825447118 0.8796450886595113 0.0
0.556124897941028 0.8613059841617771 0.0
0.5219601957009091 0.8417124664434518 0.0
0.4885110616878257 0.8209207172498462 0.0
0.4558007060429968 0.7989848675704875 0.0
0.4238520247653796 0.775953675763176 0.0
0.3926900138417566 0.7518687036338616 0.0
0.3623437622133722 0.7267636709390595 0.0
0.3328479550295906 0.7006647540504483 0.0
0.3042438201183181 0.6735915983461908 0.0
0.2765795358619001 0.6455588748284606 0.0
0.2499101143933102 0.6165781952942546 0.0
0.2242967982692083 0.5866601984136335 0.0
0.1998060807431611 0.5558166834807132 0.0
0.1765083808984156 0.5240625786010467 0.0
0.154476512720734 0.491417660368959 0.0
0.133784033184808 0.457907916333494 0.0
0.114503564227142 0.4235664945146766 0.0
0.09670517293008124 0.3884342245925089 0.0
0.0804548910754031 0.3525597611689231 0.0
0.06581337946329963 0.3159993090744527 0.0
0.05283482490365372 0.2788161107032479 0.0
0.0415660226296666 0.2410796291505872 0.0
0.03204569406625649 0.2028646095712164 0.0
0.5272009874003867 0.6419624505772817 0.0
0.7421848286576707 0.7716726266421574 0.0
0.8789503364783713 0.7829234141383637 0.0
0.6149390992905563 0.7449438030688011 0.0
0.4064556042659638 0.5942834991165423 0.0
0.9875021850865396 0.7666507358101158 0.0
0.3188065960661005 0.539594034984892 0.0
0.61365100263957 0.6399487878797632 0.0
0.8049090660915541 0.8464379870891131 0.0
0.7099820328572021 0.6828840522539854 0.0
0.5239467234991928 0.7406922291088611 0.0
0.8154056325591208 0.7211774015928547 0.0
0.6676178829014909 0.8152713180209475 0.0
0.4416080359619968 0.674360953773491 0.0
0.489443615375965 0.5654986742123573 0.0
1.076665773779852 0.7387182918829318 0.0
0.250390543112057 0.4877450112830265 0.0
0.5736819937919005 0.5790366884881447 0.0
0.7263706755366466 0.8615301097563091 0.0
0.940143307772686 0.8233944909985552 0.0
0.927065543677544 0.7236459161626674 0.0
0.8744389806957806 0.8609114380468947 0.0
0.336888362650554 0.6081958070931937 0.0
0.2030757334857187 0.4383942902513459 0.0
0.3861483329720647 0.5255533415902591 0.0
0.5621001921466506 0.7923778419149285 0.0
0.6822897332295245 0.7428043323059399 0.0
0.5764061681675353 0.6881266532454204 0.0
1.129195449682892 0.7163224153578123 0.0
0.8157794419559141 0.7831214907157077 0.0
0.3806644703311284 0.6554275822782399 0.0
0.7695737871052837 0.669593045341503 0.0
0.4699375460410929 0.6217118815516158 0.0
0.6830867370872363 0.630350317562806 0.0
1.040416897214502 0.7929392348941093 0.0
0.4604428393605979 0.7321209818568342 0.0
0.8729552856459739 0.7015083313474691 0.0
1.017010765275644 0.7166925631396708 0.0
0.6458785458483771 0.6946878992565794 0.0
0.7733575582969163 0.8941098392103913 0.0
0.4457537579383052 0.5273353624588528 0.0
0.163830623786951 0.3903175742448083 0.0
0.6095823984734953 0.8256600013628639 0.0
0.2618074352614998 0.5435604438425528 0.0
0.6287880420949764 0.5875838132975476 0.0
0.3100402147222924 0.4835410260423071 0.0
0.5422177893302824 0.5343158927797464 0.0
0.9964262112680041 0.8213447667248638 0.0
0.4971609598823845 0.6906859160718212 0.0
0.5740517260168769 0.633982031239429 0.0
0.7423299505107201 0.7218768583704394 0.0
0.767147744476665 0.819658485932403 0.0
0.9427329070375209 0.7774595780066723 0.0
0.8375285793481674 0.8869398470561132 0.0
0.2879426409425497 0.5872676364411625 0.0
0.6797562629663748 0.8647676397847667 0.0
1.171674168522591 0.6949964056806914 0.0
0.5261010885606964 0.6055079299963303 0.0
0.7081534744446967 0.8078672678314597 0.0
0.9681672688626206 0.705385299758921 0.0
0.7364069054947873 0.6432919177737106 0.0
0.363826821075015 0.5678764295233764 0.0
0.826170216989844 0.6605791783255148 0.0
0.1284439337099834 0.3602715082199688 0.0
0.518140828090112 0.783905985497134 0.0
0.8452908336054504 0.8167586152211004 0.0
0.2015204468558833 0.492088055688788 0.0
0.4005883523205732 0.7121294304856254 0.0
0.3551392316798573 0.4864133323669936 0.0
0.2501727034998737 0.4443035857235296 0.0
0.857938396055507 0.7390317828783199 0.0
0.9245301815433076 0.8668102132501951 0.0
0.5702050292970205 0.7323438487067678 0.0
1.111607633075016 0.759318252473435 0.0
0.6317193755596126 0.7853891653733797 0.0
0.7921381265818805 0.7497379312370454 0.0
1.088942426366261 0.7015435214091311 0.0
0.5818207607488639 0.5352340257544296 0.0
0.4203532416309484 0.6369649631143086 0.0
0.4854818714173937 0.5131439318707094 0.0
0.4475429831528036 0.5690430472086269 0.0
0.8968753306595262 0.8225547516037004 0.0
0.6339557898063448 0.8543470494763272 0.0
0.3416564411796998 0.6516449771136894 0.0
1.082970576264455 0.7856036465430698 0.0
0.2255204648032354 0.5229464838393291 0.0
0.7335043541589261 0.9012744999286941 0.0
0.9097052989734319 0.6921177492721042 0.0
0.5363428275528405 0.6992389299864537 0.0
0.9657777897300287 0.8588269742066746 0.0
1.025947476617909 0.7556651119714124 0.0
0.1090829970454354 0.3226173037985549 0.0
0.4836644525169279 0.7663103281018557 0.0
0.6910856326166581 0.777867529208468 0.0
0.6694391877434097 0.5946719355048008 0.0
0.2954883530575775 0.4501042133334518 0.0
0.6746032498128595 0.6643957640016517 0.0
1.054636636429828 0.6974583960183274 0.0
0.8939255235163368 0.7470597914537064 0.0
0.3749741568555516 0.6190655430398917 0.0
1.204101441114554 0.6801433534918062 0.0
0.6130053345415899 0.6785345531932346 0.0
0.7679719108452487 0.8562682874000032 0.0
0.9710820219997449 0.8008372590855476 0.0
0.1608022352294362 0.4242591696906621 0.0
0.2865399820604418 0.5141369963640697 0.0
0.1962258775846918 0.4008383427744516 0.0
0.6210920174972845 0.5516143721732873 0.0
0.4843009180093644 0.6583977883024127 0.0
0.5695029195102991 0.8267073580550881 0.0
0.9562891163300477 0.7436031251145003 0.0
0.4174190173896447 0.5044019081507806 0.0
0.410860431802698 0.5535781448116232 0.0
0.8709320861791604 0.9002602580953145 0.0
0.427354757192076 0.7399041791280969 0.0
0.7107884943357746 0.7172753954970394 0.0
1.030382288537246 0.8267335242583146 0.0
0.7737440530215844 0.7115751739064536 0.0
0.8042035044852396 0.9123190309183211 0.0
0.0480920891272324 0.2181807374272496 0.0
0.3695079235280397 0.6886893012630373 0.0
0.773516204411121 0.7830673827025234 0.0
0.302776671534508 0.6210168062901616 0.0
0.7150573728414059 0.6149413270404035 0.0
0.5863276441271683 0.769748656022605 0.0
1.143752049005473 0.6780480059671409 0.0
0.6477132714923303 0.7318578097016951 0.0
0.8380052680878572 0.8531154611905379 0.0
0.5966224054445893 0.6051703156405629 0.0
0.3207240819522855 0.5772784374275386 0.0
0.3520131451607586 0.5263918604440553 0.0
0.8573528491808811 0.6709738722470224 0.0
0.1797236573643203 0.460867988842514 0.0
0.5540828191547277 0.6661566975721369 0.0
1.158039843450239 0.7357536542887966 0.0
0.08638006908591334 0.286237566592474 0.0
0.790861820497242 0.6466611559014377 0.0
0.5362079962218838 0.8121454698907893 0.0
0.9405172130232713 0.6862060282668497 0.0
0.6039359324506977 0.711463595189489 0.0
0.4440093493753478 0.6096873538428137 0.0
0.5500746279087338 0.7620941994763282 0.0
0.2578504496023611 0.5739900063885278 0.0
0.502526452350101 0.6209820553182169 0.0
0.6799833858912959 0.7033681517905728 0.0
0.7183487148906835 0.7518430858176317 0.0
0.8006701240044786 0.8118713608014352 0.0
0.1304684854221093 0.3934039266496895 0.0
1.00789495394612 0.7937868725857601 0.0
0.696960396255943 0.893370944718147 0.0
0.8258315165019564 0.7538365084989149 0.0
0.8462950259502577 0.775614153529746 0.0
0.4082018839227037 0.6749460331934272 0.0
0.7025889307788081 0.8378536687159448 0.0
0.4666676520109517 0.6984557076050861 0.0
[...]
POINT_DATA 531

VECTORS Velocity float
0.0000000000000000 1.0000000000000000 0.0
0.0000000000000000 1.0000000000000000 0.0
2.5645425985038770 -1.0355087855686522 0.0
2.5544639250236933 1.0566342588856819 0.0
0.0000000000000000 1.0000000000000000 0.0
0.0000000000000000 1.0000000000000000 0.0
0.0000000000000000 1.0000000000000000 0.0
0.0000000000000000 1.0000000000000000 0.0
0.0000000000000000 1.0000000000000000 0.0
0.0000000000000000 1.0000000000000000 0.0
0.0000000000000000 1.0000000000000000 0.0
0.0000000000000000 1.0000000000000000 0.0
0.0000000000000000 1.0000000000000000 0.0
0.0000000000000000 1.0000000000000000 0.0
0.0000000000000000 1.0000000000000000 0.0
0.0000000000000000 1.0000000000000000 0.0
0.0000000000000000 1.0000000000000000 0.0
0.0000000000000000 1.0000000000000000 0.0
0.0000000000000000 1.0000000000000000 0.0
0.0000000000000000 1.0000000000000000 0.0
0.0000000000000000 0.0000000000000000 0.0
0.0000000000000000 0.0000000000000000 0.0
0.0000000000000000 0.0000000000000000 0.0
0.0000000000000000 0.0000000000000000 0.0
0.0000000000000000 0.0000000000000000 0.0
0.0000000000000000 0.0000000000000000 0.0
0.0000000000000000 0.0000000000000000 0.0
0.0000000000000000 0.0000000000000000 0.0
0.0000000000000000 0.0000000000000000 0.0
0.0000000000000000 0.0000000000000000 0.0
0.0000000000000000 0.0000000000000000 0.0
0.0000000000000000 0.0000000000000000 0.0
0.0000000000000000 0.0000000000000000 0.0
0.0000000000000000 0.0000000000000000 0.0
0.0000000000000000 0.0000000000000000 0.0
0.0000000000000000 0.0000000000000000 0.0
0.0000000000000000 0.0000000000000000 0.0
0.0000000000000000 0.0000000000000000 0.0
0.0000000000000000 0.0000000000000000 0.0
2.6161650047960294 -1.6060615473245965 0.0
3.2249895292772544 -1.8119779218551986 0.0
3.1107839740839713 -1.4979903826247989 0.0
3.0097107737010149 -1.0693541240877156 0.0
2.8430299281378697 -0.7753738942569552 0.0
2.8777752655154183 -0.5474569788500363 0.0
2.9047116004515825 -0.3622731236747063 0.0
2.8945576859258622 -0.2111550018641957 0.0
2.8896360818308602 -0.0269407766654867 0.0
2.9098619203904939 0.1329687094556435 0.0
2.9096051563146106 0.2820004577779313 0.0
2.8960206524543404 0.4269118476246353 0.0
2.9091374272393091 0.5605697105930111 0.0
2.8823460025826080 0.6909470729926613 0.0
2.8080881236029400 0.8605220914246849 0.0
2.7145527449168307 0.9097699241620957 0.0
0.0000000000000000 0.0000000000000000 0.0
0.0000000000000000 0.0000000000000000 0.0
0.0000000000000000 0.0000000000000000 0.0
0.0000000000000000 0.0000000000000000 0.0
0.0000000000000000 0.0000000000000000 0.0
0.0000000000000000 0.0000000000000000 0.0
0.0000000000000000 0.0000000000000000 0.0
0.0000000000000000 0.0000000000000000 0.0
0.0000000000000000 0.0000000000000000 0.0
0.0000000000000000 0.0000000000000000 0.0
0.0000000000000000 0.0000000000000000 0.0
0.0000000000000000 0.0000000000000000 0.0
0.0000000000000000 0.0000000000000000 0.0
0.0000000000000000 0.0000000000000000 0.0
0.0000000000000000 0.0000000000000000 0.0
0.0000000000000000 0.0000000000000000 0.0
0.0000000000000000 0.0000000000000000 0.0
0.0000000000000000 0.0000000000000000 0.0
0.0000000000000000 0.0000000000000000 0.0
0.0000000000000000 0.0000000000000000 0.0
0.0000000000000000 0.0000000000000000 0.0
0.0000000000000000 0.0000000000000000 0.0
0.0000000000000000 0.0000000000000000 0.0
0.0000000000000000 0.0000000000000000 0.0
0.0000000000000000 0.0000000000000000 0.0
0.0000000000000000 0.0000000000000000 0.0
0.0000000000000000 0.0000000000000000 0.0
0.0000000000000000 0.0000000000000000 0.0
2.7261000528514829 1.9433135452326982 0.0
3.0857455564854708 1.2779172213958652 0.0
3.1346349920624510 0.7462436542126570 0.0
2.9639034875758066 1.6626031635176384 0.0
2.6827429466740536 2.2954977089186994 0.0
3.0956742417002179 0.2577840410646593 0.0
2.5920197794162609 2.6404153123303433 0.0
2.8341109832339799 1.8541745085159751 0.0
3.0473097240071634 1.0814442108683628 0.0
3.1581133269261352 1.5602155520172045 0.0
3.0068339065945522 1.9748118652404631 0.0
3.1339206974911704 1.0225774703219976 0.0
3.0965610136745072 1.5251948186368613 0.0
2.6476562590710606 2.0737302478926005 0.0
2.6255776879989741 2.0101586053017448 0.0
3.2700651870577269 -0.2127679690176027 0.0
2.6835883047377638 3.2913134665089303 0.0
2.6443241961642396 1.9523851166736281 0.0
3.3442830133968786 1.2762317484819787 0.0
3.0588666108544893 0.4697261293151220 0.0
3.4230340158474450 0.5652988357932818 0.0
3.0220377906369564 0.7463645769593692 0.0
2.8323165046779306 2.7281692084831977 0.0
2.6744238824832318 3.8356407273790039 0.0
2.9576456549127741 2.4479107474614747 0.0
3.1281681123204250 1.8912744275043774 0.0
3.0394122645308963 1.4889268148206622 0.0
2.8482972975294802 1.8274239055308779 0.0
3.2330448164942673 -0.6442495261253726 0.0
3.1070337618904462 1.0323139605909302 0.0
2.7241263206857695 2.5311020953108225 0.0
3.3589545752061070 1.2729593170434144 0.0
2.6747430515760211 2.0668916730106845 0.0
3.2670624437202189 1.8085811867986632 0.0
3.0612589010162137 -0.0117569977926309 0.0
3.0050896935661306 2.0295384122461115 0.0
3.4725541656610699 0.8402948739351179 0.0
3.3587416953817364 0.1128871786832413 0.0
2.9737226611777556 1.6842044189445797 0.0
3.1709908775193898 1.4130407718214537 0.0
2.9007276609535677 2.1594197262588395 0.0
2.4445559586751346 4.0924924742876119 0.0
3.2254618001847217 1.6527005597231952 0.0
2.5503180456224941 3.1060344197774636 0.0
2.9516520064647036 2.1533486954374732 0.0
2.8211095952485246 2.9942978864860903 0.0
2.6303944639521961 1.9119916410453479 0.0
3.0316902070812253 0.2148913666247414 0.0
2.7581577408419751 1.9641757434800513 0.0
2.7616948851216327 1.8926665995460850 0.0
3.1176761881087764 1.3254335752213511 0.0
3.1010793576776177 1.1893839084821256 0.0
3.1061890543894393 0.4259339888892432 0.0
2.9781703500623702 0.9297639216467126 0.0
2.2938166713602723 2.3083549861381210 0.0
3.2233740681250076 1.5407649980721441 0.0
3.1544959073092387 -0.7196536154451214 0.0
2.6697613528370736 1.9681841174510164 0.0
3.0773569477307743 1.3521537391199223 0.0
2.9344817318464838 0.3135040507314455 0.0
2.9175087620830933 1.3326236234602109 0.0
2.5697664103017401 2.4149789466837297 0.0
2.5975642784652391 0.8492528604039749 0.0
1.6919346450982002 3.2452080049053023 0.0
2.4881649906206671 1.6331702444440077 0.0
3.0596821569002071 0.8839969488099604 0.0
1.9264122631302543 2.6051617648085532 0.0
2.1379046641072028 1.7100382944834178 0.0
2.4354488760881439 2.5390550743768201 0.0
2.3563759392196952 3.0147987201737330 0.0
3.1260770543317848 0.8309905212575973 0.0
3.0157238126032366 0.5459945690200877 0.0
2.8513386355272412 1.7681538259454506 0.0
2.9562507053452070 -0.4007047604904234 0.0
2.9132617797115397 1.5467307646373412 0.0
3.1503485171680432 1.1183989543544690 0.0
2.7948490375314909 -0.3461182557021861 0.0
2.2704424202155913 1.8536985126296635 0.0
2.5970594058233751 2.1681842938854903 0.0
2.2822362574863102 1.8905556999364899 0.0
2.6440354526611314 2.1358156693043124 0.0
3.0561338814637127 0.6666077448932817 0.0
2.6201252367617185 1.2916856095661555 0.0
2.1070954044619103 2.0719472683412388 0.0
2.9983964947336537 -0.1901154220344995 0.0
1.9422893446517833 2.5335485153604056 0.0
2.6479333089911945 1.1891713814785341 0.0
2.8708071333122782 0.5356616694503992 0.0
2.7685490507207189 1.8596983307005026 0.0
3.0087718963921484 0.3701012504721133 0.0
3.0322360526841767 0.0637349221406367 0.0
1.4915094079970490 3.1642201695814505 0.0
2.3301084122219851 1.6894431089150366 0.0
3.0290678981422485 1.4056908454924897 0.0
2.4538141680665930 1.5639363527866712 0.0
2.0902937932936307 2.8754318059964405 0.0
2.9384221579673593 1.6076883509829230 0.0
2.6583059709393848 -0.1738353028095940 0.0
3.1299458330349954 0.6697176740723763 0.0
2.6874075349089548 2.4043002820914339 0.0
2.7975932631933649 -0.9129885252790934 0.0
2.8773058142720642 1.7518448933738642 0.0
3.0031163145819910 1.1993887806335273 0.0
3.0684732215528188 0.3206339072193859 0.0
1.8562822525651417 2.9948554641509668 0.0
2.3820947670488706 2.7504707885648361 0.0
2.1970754913609030 3.5730203368313731 0.0
1.9214940710604618 1.6960068512348268 0.0
2.7238230342925198 2.0297571243528179 0.0
2.3877162692547160 1.3479580068675365 0.0
3.2394092916710431 0.3970525718044177 0.0
2.5354699787337127 2.1935853384011028 0.0
2.7130459083530303 2.2825351823403150 0.0
2.9584965005824611 0.7600755198365368 0.0
2.0369717056424967 1.5914946267160834 0.0
3.0548055150978000 1.4353822817608566 0.0
3.0024434933753730 0.0856836712087219 0.0
3.0951851515956976 1.2017924142711289 0.0
2.8888133303929862 1.1336485516094648 0.0
0.7665122205876843 3.4564790577528317 0.0
2.0083602297630736 1.7181845464885808 0.0
3.0892502170646665 1.1656935876969088 0.0
2.0020158633352061 1.9129270127654816 0.0
2.3712459392239205 1.1163234146239500 0.0
2.8876399971303184 1.6455963933838942 0.0
2.5354380964207293 -0.5435881863735847 0.0
2.9670517045459723 1.6095911591624854 0.0
3.0465294150069520 0.9435116889419117 0.0
2.6842640448119739 1.8746787864816794 0.0
2.6957230750495769 2.7940878039807941 0.0
2.8194228686355167 2.5992376812552012 0.0
2.5340473381365398 0.6446579072405340 0.0
1.7453965495561412 2.6386383089373391 0.0
2.7794194074888323 1.8848660341458938 0.0
2.8960603981267168 -0.5890692811724326 0.0
1.2195700704921697 3.3051333093343089 0.0
2.5265383646429531 0.9936662535015874 0.0
2.2042370297655829 1.1191927558296038 0.0
2.3834311912396244 0.2605445258340573 0.0
2.9013148212255384 1.7074307669547693 0.0
2.6814191923009729 2.1616547592015705 0.0
2.8828470225470317 1.8184892863803777 0.0
1.8019812121983905 2.2796103152200242 0.0
2.6902580562540410 2.0054253323008364 0.0
3.0197115103650134 1.5562498696338527 0.0
3.0803505054742151 1.3673807827070679 0.0
3.0755142055709079 1.0669692907217678 0.0
1.5654941732158409 2.6138800155858588 0.0
3.0814094247097605 0.1702056710322972 0.0
2.5738287222740204 1.0104547353531410 0.0
3.1483270604376696 0.9836531941540719 0.0
3.1183482875097663 0.8859576281868605 0.0
2.8259457697798527 2.3159070163890707 0.0
2.9503404308644638 1.2694475000335976 0.0
2.6319615004941435 1.9761594326249434 0.0
2.9710766116747989 1.8823491379619910 0.0
3.2072301517641795 1.3536570927033100 0.0
3.0101752215247446 1.5264217299430192 0.0
2.5195951872176994 0.2366488059396001 0.0
2.5989720137903394 1.9511581310461970 0.0
3.4214206085632766 1.0206125924662413 0.0
2.8695167327025746 1.9321616651573799 0.0
3.3176720660816779 0.0811662599325339 0.0
2.9849339076981325 -0.0536995469529339 0.0
1.6505725344251758 1.9436189187239683 0.0
2.5293199035452214 -0.8844765324225168 0.0
2.8125124410967448 1.8292537701508189 0.0
3.1427762950758251 1.8062679711237446 0.0
2.9729788912447561 1.0665546720062458 0.0
2.6135971975849417 3.5527958253777259 0.0
1.6202400499061080 1.6793857750516972 0.0
2.6890942016814048 2.0714244259714727 0.0
2.1777192011906732 2.0986862724306912 0.0
3.1269079339162418 -0.4004762985841118 0.0
3.1208124396865284 0.5955433242278699 0.0
2.6897836684327485 1.9385863121384461 0.0
1.8484526972428823 1.4149992931167155 0.0
1.9971379664538937 2.4892717120814849 0.0
2.7536276952690328 2.7452226625542289 0.0
1.9306403674480124 2.9831521758764419 0.0
1.9875751126667238 2.0585622232909819 0.0
1.9478682961009210 1.6901502136500028 0.0
1.7541673428146625 3.0697841737507230 0.0
2.5225177386738378 1.2450649921259094 0.0
2.3413870361221698 -1.2351874304554737 0.0
2.7949057350454170 2.2794899139860134 0.0
2.0794247511435140 0.8806845288751401 0.0
1.9492349205751651 1.3813697757544554 0.0
2.7279016375305249 2.8435256181249251 0.0
2.3819542955860684 -0.1846570393271941 0.0
2.9579659530212834 0.6565745874527245 0.0
2.9895713122056593 0.2329797405436909 0.0
2.9254742391947346 1.7366266178666705 0.0
1.1426296596566750 3.3202777527017622 0.0
3.2504147705204871 0.6943330634946832 0.0
1.9598204889620015 1.0697483917054416 0.0
3.0411137803283492 -0.0900143580529495 0.0
2.7014916900807986 2.1221187914877189 0.0
2.2058203065912338 -0.0150324911863282 0.0
3.2248582889094184 -0.0058515575563168 0.0
3.1852010648727394 1.4754973784142629 0.0
3.0078770447717202 -0.7711031584584148 0.0
2.3856234971287646 0.2973851220033996 0.0
2.9883698820446365 1.6740724753898397 0.0
2.7885175538108218 2.0740594683408911 0.0
2.7929156561624433 1.8599811465519012 0.0
2.7584596444932332 1.9413885826132085 0.0
3.0730318189898322 1.2867184188903393 0.0
3.3901957612282456 1.2115640915286190 0.0
2.7184175122453529 2.9477257395410539 0.0
3.0746767741560892 1.2672808816727346 0.0
2.2563522387371884 1.2462852226581460 0.0
2.4620181974613913 3.1253869696304406 0.0
3.2702310344597718 1.4187899942551259 0.0
3.0737094363661117 1.3401653650473768 0.0
3.1272693525604547 1.2523034161890894 0.0
2.7198301341666622 1.8194825825990251 0.0
2.6831874385026824 1.9992474000247533 0.0
2.2359858582029943 -0.8192351004892983 0.0
3.0978477037312291 0.5161099223633254 0.0
3.0396421969562604 0.3283306994257429 0.0
1.6571457461361236 3.7533109142753185 0.0
2.7748533697637798 2.0412814521491724 0.0
1.5532776794354430 1.1173774201973750 0.0
2.7568083431544146 1.9294714664611707 0.0
3.0683194598579808 1.2890071882204435 0.0
3.1335389255058139 0.7856471224941229 0.0
2.9100746002104767 1.6290672842318128 0.0
2.7042865469289099 2.2574013910590427 0.0
3.0931442916752792 0.3051769025844370 0.0
2.6232895748437466 2.6086321359391085 0.0
2.9101709270093048 1.8932990356464297 0.0
2.9536700375596552 1.0981804300716407 0.0
3.2552228967377195 1.6191914765630553 0.0
2.9066671336672512 1.8973052696634043 0.0
3.2111194912077927 1.0626192046653280 0.0
2.9903023131638147 1.4778462963979120 0.0
2.5913146250538550 2.0089991751243108 0.0
2.7238785161739929 2.0100959386264150 0.0
3.2801954500523518 -0.1759875384314919 0.0
2.7023064282195861 3.2591342957841656 0.0
2.7637170801591591 1.9917250039019367 0.0
3.2003008687387604 1.2472415732984616 0.0
2.9759001596010624 0.5194099310001724 0.0
3.5256120091263794 0.6069959559642809 0.0
2.9021242607830398 0.7968710072043309 0.0
2.7806895269931320 2.6478894945903635 0.0
2.6979200921141633 3.8277874537273484 0.0
3.0552893527469132 2.4520779363780183 0.0
2.9874454037546476 1.8036478086854362 0.0
3.0365103948584737 1.4912940518632838 0.0
2.8427765753656327 1.8120920170764150 0.0
3.2449391977192699 -0.6248908468451506 0.0
3.0950155888836592 1.0619532233060516 0.0
2.6493710939109332 2.4292473355788649 0.0
3.5144034094310466 1.3362414430649037 0.0
2.6988554168960261 2.0390365031814972 0.0
3.4210700110103369 1.8927662255111255 0.0
3.0039419857478760 0.0480443178108595 0.0
2.8696626150259603 1.9363273815734068 0.0
3.6140170415840007 0.8874770802343280 0.0
3.4400630634182918 0.1379265067719214 0.0
3.0086178064507956 1.7029271103471515 0.0
3.0117640862596842 1.4020492093739867 0.0
3.0366694438808475 2.1669995697646036 0.0
2.4589734881158742 4.0890799522166654 0.0
3.0770346658663934 1.5785891289764593 0.0
2.5219849366814375 3.0407020537830789 0.0
3.0999013852629269 2.2525738993802267 0.0
2.8957242018251250 3.0104990869717447 0.0
2.7827419245613947 1.9413193479515987 0.0
2.9428082073668520 0.2870533538346621 0.0
2.7057289653355774 1.9033726307832868 0.0
2.8219533415942455 1.9055000168019460 0.0
3.1735678631527535 1.3580085140986968 0.0
3.0279749530222269 1.1961055638412903 0.0
3.0991734505030006 0.4731467311676373 0.0
2.8130549127062814 0.9611551687733950 0.0
2.2234033508707935 2.2227735660578976 0.0
3.0665128109700088 1.4707012914974145 0.0
3.1632039874890849 -0.6886289944686119 0.0
2.7345008025681365 1.9735627086853562 0.0
2.9994108877815377 1.3342974256706805 0.0
3.0661936585796359 0.3474779544950362 0.0
3.0966011555026856 1.4089362881303120 0.0
2.5963306334131189 2.3814750478605098 0.0
2.7985135586509866 0.9163231794933453 0.0
1.6999002707988706 3.2358518006256025 0.0
2.3376528947062254 1.5259993138933210 0.0
3.0050666739772893 0.9143852819370445 0.0
1.9000174553316878 2.5482389336751141 0.0
2.0011662412071614 1.5875894685720575 0.0
2.5517192306247858 2.5688554518214062 0.0
2.4196530088206147 3.0288859516497002 0.0
3.1856990816275434 0.8718114196209963 0.0
2.8685807655459885 0.6142859909036731 0.0
2.7958462949017830 1.7263497341552700 0.0
2.9029306065276486 -0.3436902462348410 0.0
2.8278563896048596 1.4991800495017304 0.0
3.1865042258406739 1.1493273119579264 0.0
2.8687471134229288 -0.3369998679555783 0.0
2.4124399992863621 1.9183629840691556 0.0
2.5723275679910240 2.1114854412451742 0.0
2.4562870700776918 1.9105758925095757 0.0
2.7199229171890136 2.1216036708731520 0.0
2.9844702340472478 0.7177143810804696 0.0
2.4373416063768558 1.2064916623264257 0.0
2.0044370804306815 1.9572696849130720 0.0
2.9297881414475571 -0.1179528077111797 0.0
1.9067569141333078 2.4573618251580966 0.0
2.4685665433491142 1.1320848593204706 0.0
3.0300228926700843 0.5858396597029842 0.0
2.7325816214587020 1.8192939733846591 0.0
2.8718490609819445 0.4355008064625153 0.0
3.0421725859949946 0.1127123718144764 0.0
1.4940554267310655 3.1639892177975422 0.0
2.1646082020783868 1.5708647734003642 0.0
2.9809851188740892 1.3938418193053332 0.0
2.6478162344512266 1.6836689000227185 0.0
2.1700234211554328 2.9050888217135808 0.0
3.0246184746931686 1.6488157364597147 0.0
2.7624814625297756 -0.1609313662624689 0.0
3.1731514648281052 0.7123629721761909 0.0
2.6536301979787331 2.3277431219014084 0.0
2.8005590140455578 -0.8893128414906427 0.0
2.9103038639073633 1.7622332229094506 0.0
2.9009706363173953 1.1949857580183310 0.0
3.0331623605919389 0.3701259716017548 0.0
1.8501395806369332 2.9624593436279811 0.0
2.4076763819628484 2.7283981009721123 0.0
2.2249667097578345 3.5832700983450856 0.0
2.0835246519700790 1.8287874566615752 0.0
2.7046449244746178 1.9828585334704527 0.0
2.2045678563747031 1.2432285425596499 0.0
3.2945542857946197 0.4390401583618643 0.0
2.6736797968932655 2.2110292160666005 0.0
2.7979101446883892 2.2681915866177067 0.0
2.7869963317344522 0.8238812855843062 0.0
1.8876698458962777 1.4710813594531844 0.0
3.0972618879830072 1.4670229824927685 0.0
2.8930408748273058 0.1572754175850888 0.0
3.1726157379636537 1.2434875155548928 0.0
2.7064321723251044 1.1604013027647506 0.0
0.7665122205876843 3.4564790577528317 0.0
1.8831878855386763 1.6028245628856004 0.0
3.0686440076089641 1.1829131369521773 0.0
1.9098867548024299 1.8016217371907002 0.0
2.5795772687511405 1.2205288726182302 0.0
2.7981764393913058 1.5947677535991496 0.0
2.5965306105576014 -0.5510090834308221 0.0
2.9603326885804577 1.6074122269204059 0.0
2.9428867555447331 0.9728164912049734 0.0
2.7817587418913212 1.9211778130338428 0.0
2.6645873792405887 2.7259336002486196 0.0
2.8938901599246338 2.5921646632712854 0.0
2.7314727798254816 0.6975266849134971 0.0
1.7241583780145049 2.5919912274124890 0.0
2.7909773593493195 1.8717907238110594 0.0
2.8551868593871284 -0.5383233864638726 0.0
1.2187663094807915 3.3053117402178414 0.0
2.7288410860706294 1.0749255417552597 0.0
2.0185246686024931 1.0151101018139526 0.0
2.5554201842647375 0.2912657470943756 0.0
2.8916821075022221 1.6912949709420821 0.0
2.7068832620271159 2.1250841692585798 0.0
2.7784348017456839 1.7441505315610062 0.0
1.7314677786572095 2.1828684249567534 0.0
2.7238805282336851 1.9853923857139906 0.0
3.0630155712593479 1.5764468538511389 0.0
3.0823270065157988 1.3780966273939637 0.0
3.0209108799013134 1.0873783486936792 0.0
1.5647048831916770 2.5879486671429248 0.0
3.0369740696996721 0.2267483994903165 0.0
2.3876266604952363 0.9498209160792909 0.0
3.1862580081679561 1.0196947506355403 0.0
3.1219490304005189 0.9253750208543540 0.0
2.7391852344333492 2.2173760061347343 0.0
2.8399341714196922 1.2380304264855386 0.0
2.5702932847736402 1.9035614497214803 0.0
3.0923547262258113 1.9522336752405658 0.0
3.3156746457783313 1.3950712065989463 0.0
2.9574829913421063 1.5075868083375707 0.0
2.6626777927798306 0.2564512130081209 0.0
2.7095060587211188 1.9712450171557256 0.0
3.5664389953981375 1.0761435569734634 0.0
2.7757605858350880 1.8640860813919822 0.0
3.3850309591435774 0.1123185395169709 0.0
2.8940459140235482 0.0150850607115949 0.0
1.5938300994508059 1.8605694285041756 0.0
2.5359144077448765 -0.8803836358107598 0.0
2.8529962223356971 1.8400295022776361 0.0