# vtk DataFile Version 3.0
LucasCarvalhoTCC Results
ASCII

DATASET POLYDATA
FIELD FieldData 1
TIME 1 1 double
0.5

POINTS 531 float
0.02430399999999999 0.16425 0.0
0.5913384 0.481878 0.0
1.30475 0.591832 0.0
0.774126 0.951272 0.0
0.04779564148251592 0.1966194329439859 0.0
0.0726092153537953 0.2279866320496896 0.0
0.09876577335895967 0.2582426022760065 0.0
0.1262817198684718 0.2872673048853742 0.0
0.1551671626852806 0.3149288071400502 0.0
0.1854238368919928 0.3410826624766006 0.0
0.2170424591499632 0.3655716640299072 0.0
0.2499995164635996 0.3882263409476824 0.0
0.2842534387828506 0.4088665906889567 0.0
0.3197403359862048 0.4273050841371062 0.0
0.3563695945475563 0.4433531534921038 0.0
0.3940201673622058 0.4568300511916809 0.0
0.4325386107291805 0.4675762214989666 0.0
0.4717406913237268 0.4754709112408955 0.0
0.5114182513144845 0.480453442081874 0.0
0.5513531678859215 0.4825464217651069 0.0
0.6182637923774223 0.5096055604109244 0.0
0.647389101376845 0.5350126187545199 0.0
0.6784752958296183 0.5579802184492302 0.0
0.7112421079139344 0.5784810076698811 0.0
0.7454110434104482 0.5965507527581431 0.0
0.7807301979183381 0.6122562812860965 0.0
0.8169827939052532 0.6256694297140926 0.0
0.853985522124928 0.6368498290413532 0.0
0.8915818964261243 0.6458353363890481 0.0
0.9296339776508085 0.6526379336565091 0.0
0.9680139759519513 0.6572432424840469 0.0
1.006596418266983 0.659612648128084 0.0
1.045251165872634 0.6596877658251245 0.0
1.083837680945672 0.657397570658483 0.0
1.122201320191055 0.6526688455666412 0.0
1.160173053543044 0.6454405726452737 0.0
1.197574286953346 0.6356824063786186 0.0
1.23422961949795 0.6234159704281613 0.0
1.26998758503999 0.6087366500005643 0.0
1.285086682927543 0.6256533177085738 0.0
1.263669745906668 0.6583917156018083 0.0
1.240480125919214 0.6898988493917133 0.0
1.215532715641304 0.7200329197235763 0.0
1.188869833862339 0.7486599839005789 0.0
1.160556835593143 0.7756559317113654 0.0
1.130680194163798 0.8009104211039757 0.0
1.099347083827048 0.8243335727704395 0.0
1.066684425336412 0.8458643604021228 0.0
1.03283497048792 0.8654772531176074 0.0
0.9979492572630678 0.8831824104874066 0.0
0.9621749986495024 0.8990166556695112 0.0
0.9256475378616493 0.9130272060048579 0.0
0.8884846540507749 0.9252538945090274 0.0
0.8507866567183312 0.935715378288671 0.0
0.8126405010322847 0.9444016349017643 0.0
0.7365055179612304 0.9396161853607135 0.0
0.699310855231089 0.9266666891603924 0.0
0.6626179171945521 0.9123577070090924 0.0
0.6264901449910028 0.8966765244755546 0.0
0.5909789825447118 0.8796450886595113 0.0
0.556124897941028 0.8613059841617771 0.0
0.5219601957009091 0.8417124664434518 0.0
0.4885110616878257 0.8209207172498462 0.0
0.4558007060429968 0.7989848675704875 0.0
0.4238520247653796 0.775953675763176 0.0
0.3926900138417566 0.7518687036338616 0.0
0.3623437622133722 0.7267636709390595 0.0
0.3328479550295906 0.7006647540504483 0.0
0.3042438201183181 0.6735915983461908 0.0
0.2765795358619001 0.6455588748284606 0.0
0.2499101143933102 0.6165781952942546 0.0
0.2242967982692083 0.5866601984136335 0.0
0.1998060807431611 0.5558166834807132 0.0
0.1765083808984156 0.5240625786010467 0.0
0.154476512720734 0.491417660368959 0.0
0.133784033184808 0.457907916333494 0.0
0.114503564227142 0.4235664945146766 0.0
0.09670517293008124 0.3884342245925089 0.0
0.0804548910754031 0.3525597611689231 0.0
0.06581337946329963 0.3159993090744527 0.0
0.05283482490365372 0.2788161107032479 0.0
0.0415660226296666 0.2410796291505872 0.0
0.03204569406625649 0.2028646095712164 0.0
0.5272009874003867 0.6419624505772817 0.0
0.7421848286576707 0.7716726266421574 0.0
0.8789503364783713 0.7829234141383637 0.0
0.6149390992905563 0.7449438030688011 0.0
0.4064556042659638 0.5942834991165423 0.0
0.9875021850865396 0.7666507358101158 0.0
0.3188065960661005 0.539594034984892 0.0
0.61365100263957 0.6399487878797632 0.0
0.8049090660915541 0.8464379870891131 0.0
0.7099820328572021 0.6828840522539854 0.0
0.5239467234991928 0.7406922291088611 0.0
0.8154056325591208 0.7211774015928547 0.0
0.6676178829014909 0.8152713180209475 0.0
0.4416080359619968 0.674360953773491 0.0
0.489443615375965 0.5654986742123573 0.0
1.076665773779852 0.7387182918829318 0.0
0.250390543112057 0.4877450112830265 0.0
0.5736819937919005 0.5790366884881447 0.0
0.7263706755366466 0.8615301097563091 0.0
0.940143307772686 0.8233944909985552 0.0
0.927065543677544 0.7236459161626674 0.0
0.8744389806957806 0.8609114380468947 0.0
0.336888362650554 0.6081958070931937 0.0
0.2030757334857187 0.4383942902513459 0.0
0.3861483329720647 0.5255533415902591 0.0
0.5621001921466506 0.7923778419149285 0.0
0.6822897332295245 0.7428043323059399 0.0
0.5764061681675353 0.6881266532454204 0.0
1.129195449682892 0.7163224153578123 0.0
0.8157794419559141 0.7831214907157077 0.0
0.3806644703311284 0.6554275822782399 0.0
0.7695737871052837 0.669593045341503 0.0
0.4699375460410929 0.6217118815516158 0.0
0.6830867370872363 0.630350317562806 0.0
1.040416897214502 0.7929392348941093 0.0
0.4604428393605979 0.7321209818568342 0.0
0.8729552856459739 0.7015083313474691 0.0
1.017010765275644 0.7166925631396708 0.0
0.6458785458483771 0.6946878992565794 0.0
0.7733575582969163 0.8941098392103913 0.0
0.4457537579383052 0.5273353624588528 0.0
0.163830623786951 0.3903175742448083 0.0
0.6095823984734953 0.8256600013628639 0.0
0.2618074352614998 0.5435604438425528 0.0
0.6287880420949764 0.5875838132975476 0.0
0.3100402147222924 0.4835410260423071 0.0
0.5422177893302824 0.5343158927797464 0.0
0.9964262112680041 0.8213447667248638 0.0
0.4971609598823845 0.6906859160718212 0.0
0.5740517260168769 0.633982031239429 0.0
0.7423299505107201 0.7218768583704394 0.0
0.767147744476665 0.819658485932403 0.0
0.9427329070375209 0.7774595780066723 0.0
0.8375285793481674 0.8869398470561132 0.0
0.2879426409425497 0.5872676364411625 0.0
0.6797562629663748 0.8647676397847667 0.0
1.171674168522591 0.6949964056806914 0.0
0.5261010885606964 0.6055079299963303 0.0
0.7081534744446967 0.8078672678314597 0.0
0.9681672688626206 0.705385299758921 0.0
0.7364069054947873 0.6432919177737106 0.0
0.363826821075015 0.5678764295233764 0.0
0.826170216989844 0.6605791783255148 0.0
0.1284439337099834 0.3602715082199688 0.0
0.518140828090112 0.783905985497134 0.0
0.8452908336054504 0.8167586152211004 0.0
0.2015204468558833 0.492088055688788 0.0
0.4005883523205732 0.7121294304856254 0.0
0.3551392316798573 0.4864133323669936 0.0
0.2501727034998737 0.4443035857235296 0.0
0.857938396055507 0.7390317828783199 0.0
0.9245301815433076 0.8668102132501951 0.0
0.5702050292970205 0.7323438487067678 0.0
1.111607633075016 0.759318252473435 0.0
0.6317193755596126 0.7853891653733797 0.0
0.7921381265818805 0.7497379312370454 0.0
1.088942426366261 0.7015435214091311 0.0
0.5818207607488639 0.5352340257544296 0.0
0.4203532416309484 0.6369649631143086 0.0
0.4854818714173937 0.5131439318707094 0.0
0.4475429831528036 0.5690430472086269 0.0
0.8968753306595262 0.8225547516037004 0.0
0.6339557898063448 0.8543470494763272 0.0
0.3416564411796998 0.6516449771136894 0.0
1.082970576264455 0.7856036465430698 0.0
0.2255204648032354 0.5229464838393291 0.0
0.7335043541589261 0.9012744999286941 0.0
0.9097052989734319 0.6921177492721042 0.0
0.5363428275528405 0.6992389299864537 0.0
0.9657777897300287 0.8588269742066746 0.0
1.025947476617909 0.7556651119714124 0.0
0.1090829970454354 0.3226173037985549 0.0
0.4836644525169279 0.7663103281018557 0.0
0.6910856326166581 0.777867529208468 0.0
0.6694391877434097 0.5946719355048008 0.0
0.2954883530575775 0.4501042133334518 0.0
0.6746032498128595 0.6643957640016517 0.0
1.054636636429828 0.6974583960183274 0.0
0.8939255235163368 0.7470597914537064 0.0
0.3749741568555516 0.6190655430398917 0.0
1.204101441114554 0.6801433534918062 0.0
0.6130053345415899 0.6785345531932346 0.0
0.7679719108452487 0.8562682874000032 0.0
0.9710820219997449 0.8008372590855476 0.0
0.1608022352294362 0.4242591696906621 0.0
0.2865399820604418 0.5141369963640697 0.0
0.1962258775846918 0.4008383427744516 0.0
0.6210920174972845 0.5516143721732873 0.0
0.4843009180093644 0.6583977883024127 0.0
0.5695029195102991 0.8267073580550881 0.0
0.9562891163300477 0.7436031251145003 0.0
0.4174190173896447 0.5044019081507806 0.0
0.410860431802698 0.5535781448116232 0.0
0.8709320861791604 0.9002602580953145 0.0
0.427354757192076 0.7399041791280969 0.0
0.7107884943357746 0.7172753954970394 0.0
1.030382288537246 0.8267335242583146 0.0
0.7737440530215844 0.7115751739064536 0.0
0.8042035044852396 0.9123190309183211 0.0
0.0480920891272324 0.2181807374272496 0.0
0.3695079235280397 0.6886893012630373 0.0
0.773516204411121 0.7830673827025234 0.0
0.302776671534508 0.6210168062901616 0.0
0.7150573728414059 0.6149413270404035 0.0
0.5863276441271683 0.769748656022605 0.0
1.143752049005473 0.6780480059671409 0.0
0.6477132714923303 0.7318578097016951 0.0
0.8380052680878572 0.8531154611905379 0.0
0.5966224054445893 0.6051703156405629 0.0
0.3207240819522855 0.5772784374275386 0.0
0.3520131451607586 0.5263918604440553 0.0
0.8573528491808811 0.6709738722470224 0.0
0.1797236573643203 0.460867988842514 0.0
0.5540828191547277 0.6661566975721369 0.0
1.158039843450239 0.7357536542887966 0.0
0.08638006908591334 0.286237566592474 0.0
0.790861820497242 0.6466611559014377 0.0
0.5362079962218838 0.8121454698907893 0.0
0.9405172130232713 0.6862060282668497 0.0
0.6039359324506977 0.711463595189489 0.0
0.4440093493753478 0.6096873538428137 0.0
0.5500746279087338 0.7620941994763282 0.0
0.2578504496023611 0.5739900063885278 0.0
0.502526452350101 0.6209820553182169 0.0
0.6799833858912959 0.7033681517905728 0.0
0.7183487148906835 0.7518430858176317 0.0
0.8006701240044786 0.8118713608014352 0.0
0.1304684854221093 0.3934039266496895 0.0
1.00789495394612 0.7937868725857601 0.0
0.696960396255943 0.893370944718147 0.0
0.8258315165019564 0.7538365084989149 0.0
0.8462950259502577 0.775614153529746 0.0
0.4082018839227037 0.6749460331934272 0.0
0.7025889307788081 0.8378536687159448 0.0
0.4666676520109517 0.6984557076050861 0.0
[...]
POINT_DATA 531

VECTORS Velocity float
0.0000000000000000 1.0000000000000000 0.0
0.0000000000000000 1.0000000000000000 0.0
2.6398297469307970 -0.9562457851431119 0.0
2.1605401377716857 1.0715235620164154 0.0
0.0000000000000000 1.0000000000000000 0.0
0.0000000000000000 1.0000000000000000 0.0
0.0000000000000000 1.0000000000000000 0.0
0.0000000000000000 1.0000000000000000 0.0
0.0000000000000000 1.0000000000000000 0.0
0.0000000000000000 1.0000000000000000 0.0
0.0000000000000000 1.0000000000000000 0.0
0.0000000000000000 1.0000000000000000 0.0
0.0000000000000000 1.0000000000000000 0.0
0.0000000000000000 1.0000000000000000 0.0
0.0000000000000000 1.0000000000000000 0.0
0.0000000000000000 1.0000000000000000 0.0
0.0000000000000000 1.0000000000000000 0.0
0.0000000000000000 1.0000000000000000 0.0
0.0000000000000000 1.0000000000000000 0.0
0.0000000000000000 1.0000000000000000 0.0
0.0000000000000000 0.0000000000000000 0.0
0.0000000000000000 0.0000000000000000 0.0
0.0000000000000000 0.0000000000000000 0.0
0.0000000000000000 0.0000000000000000 0.0
0.0000000000000000 0.0000000000000000 0.0
0.0000000000000000 0.0000000000000000 0.0
0.0000000000000000 0.0000000000000000 0.0
0.0000000000000000 0.0000000000000000 0.0
0.0000000000000000 0.0000000000000000 0.0
0.0000000000000000 0.0000000000000000 0.0
0.0000000000000000 0.0000000000000000 0.0
0.0000000000000000 0.0000000000000000 0.0
0.0000000000000000 0.0000000000000000 0.0
0.0000000000000000 0.0000000000000000 0.0
0.0000000000000000 0.0000000000000000 0.0
0.0000000000000000 0.0000000000000000 0.0
0.0000000000000000 0.0000000000000000 0.0
0.0000000000000000 0.0000000000000000 0.0
0.0000000000000000 0.0000000000000000 0.0
2.6798634613063501 -1.8015854214987999 0.0
3.6560705044996813 -2.3072122964341113 0.0
3.6552907277085418 -2.1258267255179688 0.0
3.5332528477367950 -1.6582596726884964 0.0
3.2499663654318627 -1.1747122434029353 0.0
3.1901351597164882 -0.8543553073317537 0.0
3.2241666211103741 -0.6150168698135144 0.0
3.1974547029321867 -0.4390277847404859 0.0
3.1697839308449089 -0.2029014175217562 0.0
3.1720074315241562 -0.0113254140702750 0.0
3.1386402778312084 0.1733020805811745 0.0
3.0745750099397862 0.3523506256454627 0.0
3.0468370591660801 0.5055576887067083 0.0
2.9577620685008608 0.6529354631921821 0.0
2.7238683121390461 0.9500077214765082 0.0
2.3304926530041929 0.8805204909845061 0.0
0.0000000000000000 0.0000000000000000 0.0
0.0000000000000000 0.0000000000000000 0.0
0.0000000000000000 0.0000000000000000 0.0
0.0000000000000000 0.0000000000000000 0.0
0.0000000000000000 0.0000000000000000 0.0
0.0000000000000000 0.0000000000000000 0.0
0.0000000000000000 0.0000000000000000 0.0
0.0000000000000000 0.0000000000000000 0.0
0.0000000000000000 0.0000000000000000 0.0
0.0000000000000000 0.0000000000000000 0.0
0.0000000000000000 0.0000000000000000 0.0
0.0000000000000000 0.0000000000000000 0.0
0.0000000000000000 0.0000000000000000 0.0
0.0000000000000000 0.0000000000000000 0.0
0.0000000000000000 0.0000000000000000 0.0
0.0000000000000000 0.0000000000000000 0.0
0.0000000000000000 0.0000000000000000 0.0
0.0000000000000000 0.0000000000000000 0.0
0.0000000000000000 0.0000000000000000 0.0
0.0000000000000000 0.0000000000000000 0.0
0.0000000000000000 0.0000000000000000 0.0
0.0000000000000000 0.0000000000000000 0.0
0.0000000000000000 0.0000000000000000 0.0
0.0000000000000000 0.0000000000000000 0.0
0.0000000000000000 0.0000000000000000 0.0
0.0000000000000000 0.0000000000000000 0.0
0.0000000000000000 0.0000000000000000 0.0
0.0000000000000000 0.0000000000000000 0.0
3.0796209074704417 2.1539115748301492 0.0
3.4249224485025600 1.4919929422405405 0.0
3.4046995862018687 0.8570076824215541 0.0
3.2895315932393148 1.8809965900762406 0.0
3.1715941683644151 2.5998186194503417 0.0
3.4946545617315876 0.2087776884585194 0.0
3.4690565708165417 3.2186039534986737 0.0
3.1842900844915309 2.1488915577136649 0.0
3.2507063935749634 1.3038709549865395 0.0
3.5262996109474596 1.7364741248561175 0.0
3.2165384460407482 2.1143628431568011 0.0
3.5785768071973680 1.2093886097519098 0.0
3.4417205970347862 1.7310216787681947 0.0
3.0590694724399961 2.4261382708704082 0.0
3.0974978069034678 2.1944068934694623 0.0
3.4914645252468124 -0.3264464523841802 0.0
3.4180959550052048 3.8951771462804898 0.0
2.8350888059980099 2.1856077825722910 0.0
3.5037833798546543 1.4694481278145322 0.0
3.3026200630226392 0.4797343966042469 0.0
3.3645238216714555 0.5313318706986889 0.0
3.1787765542877500 0.8514788625554403 0.0
2.9397004568642520 2.8669749223110417 0.0
3.4340247507229553 4.5744757948928063 0.0
3.4289237262907708 2.4927221474285268 0.0
3.0309350571034126 1.8186954325003950 0.0
3.4024660891427230 1.7180428555803429 0.0
3.1907920354631467 2.0560597107012959 0.0
3.3126010105568486 -0.7560848624974089 0.0
3.3941074017496335 1.2178613150912281 0.0
2.7741822644193244 2.5021368751645445 0.0
3.2334216315785493 1.2283194859924806 0.0
3.0646354384056749 2.2858141255463145 0.0
3.2454035570043671 1.7592279049177164 0.0
3.3513728325356338 -0.1233952393533971 0.0
2.7823734728896370 1.9162420259682291 0.0
3.2912202813339428 0.8048935687200548 0.0
3.0979372565575347 0.1332953449355011 0.0
3.3305079934428852 1.9204989585897447 0.0
3.1174503994185603 1.7542296696952422 0.0
3.0105011334794383 2.2945753553707942 0.0
2.9296906873988622 4.7192356766305377 0.0
3.1121397083439937 1.5979183064265885 0.0
2.5719864674255231 3.1630057437529135 0.0
2.8048071109607902 2.0963937080750639 0.0
3.1223548774145797 3.3257692537100598 0.0
2.4446455722819724 1.9057400875686212 0.0
3.2924892642951940 0.1537138903504117 0.0
3.1982924292905714 2.1686910040409373 0.0
3.0772448460525155 2.1234434698575195 0.0
3.5082897088068234 1.5032966733324835 0.0
3.3784728580966341 1.4255467464442888 0.0
3.4324781491142469 0.4482106973823147 0.0
3.0205854703378030 1.1287985981244930 0.0
1.9662537421882016 1.9466438092599971 0.0
3.0591628922765604 1.5028043468698855 0.0
3.1964006281563555 -0.8615937627587885 0.0
3.0386253331777682 2.1717455940668549 0.0
3.4068076459321452 1.6568564264973249 0.0
2.3860762548764334 0.2254612236355268 0.0
2.5587129821234851 1.2232178435981176 0.0
3.3235746184248205 2.9086896938587961 0.0
1.8432566948224911 0.6515429372506374 0.0
1.8272540395632311 3.2623916200507317 0.0
2.0635054721235258 1.2924090275599061 0.0
3.2962479319232756 1.0406915270635544 0.0
1.8247493432753523 2.3641468109275929 0.0
1.5862899053957229 1.1791173977770144 0.0
2.1708066832104262 2.4131131430366497 0.0
2.6887027167395572 3.3235450099669079 0.0
3.5503222064019635 0.9989831263581761 0.0
3.1727241212975779 0.5720542462795413 0.0
3.2415667909187138 2.0854959921450917 0.0
3.4042252499087651 -0.6881940666904670 0.0
3.3616159582390743 1.7495716872903233 0.0
3.4631724916083804 1.2815292852307807 0.0
2.3055400948872973 -0.3697757559698303 0.0
1.9637373765404029 1.7262240710382146 0.0
3.0569036469041682 2.5816041295020784 0.0
1.7323439768100244 1.8092248370733852 0.0
3.1744865216478684 2.3211710704374462 0.0
3.2903525584167133 0.7524725188574172 0.0
2.0982369546211386 1.0872677525272150 0.0
1.6596702295004273 1.6696220257780883 0.0
3.3869710230262542 -0.3637254647412095 0.0
1.8347824062452263 2.0871688961435324 0.0
2.0961528201826622 1.0528031986472788 0.0
2.2039811344783011 0.2964144031730856 0.0
3.2472462342871951 2.1429535317445474 0.0
3.2060968555290579 0.3347764524167046 0.0
3.4359863075712709 -0.0545878117920760 0.0
1.5906053938803344 3.1031792749681775 0.0
1.7874479496273008 1.4067947081239724 0.0
3.4445923298101224 1.6774176317733409 0.0
1.8654672650594168 1.1715681722196278 0.0
1.5957787952197675 2.7458291162286756 0.0
3.3958657070333405 1.9287088360923534 0.0
2.0472517625376678 -0.2495584857338835 0.0
3.4919877021401140 0.7925337183481236 0.0
3.0568596164740445 2.7076854561807169 0.0
2.7837038223981256 -1.1829061494613007 0.0
3.2386429029424315 1.9994585270330723 0.0
3.3587269094123871 1.5861250181992119 0.0
3.3481997322201416 0.2945330624636646 0.0
1.9932955726673625 3.0549214037159200 0.0
3.2162817596150046 3.4839914903004199 0.0
2.4399596556527037 4.0124472769007058 0.0
1.2827384503220147 1.1870987767437660 0.0
3.0749805076587537 2.2379373660668955 0.0
1.6942200447854867 0.9123786985209285 0.0
3.5115476735889266 0.3739994957442935 0.0
2.2783192108213823 2.1405727548267568 0.0
3.2774168526104011 2.4833157847504364 0.0
2.9554976363897523 0.8421359784771477 0.0
1.3576702814377337 1.0242443191176838 0.0
3.4988645463797625 1.6475333327773269 0.0
3.2644031477359525 -0.0237651871169704 0.0
3.5380284246681204 1.3794849601999661 0.0
2.6453868836228707 1.3945512609387676 0.0
0.7642471100340791 3.4574173556711689 0.0
1.3915355034088412 1.2443210840059393 0.0
3.4013540269148890 1.3637798539481591 0.0
1.5614359420900561 1.3304190197227812 0.0
1.7023892299961565 0.6988751008835161 0.0
3.2768151070892690 1.9467912856798995 0.0
1.9162642258716038 -0.3567188696381102 0.0
3.3366399884535713 1.8521090110172020 0.0
3.2359828881768573 1.1242030462345469 0.0
3.0734871163500639 2.1747259162950345 0.0
3.0072943638729948 3.0411215873048136 0.0
3.5050880593115576 3.0195100295254966 0.0
1.7064690976158614 0.4695650010686109 0.0
1.7058726591760542 2.4401278612520025 0.0
3.1272060971536582 2.1118171892163935 0.0
3.3963360969399559 -0.9093797396581388 0.0
1.2134233542561352 3.3075222713678576 0.0
1.7999040699721724 0.7210106349062262 0.0
1.5231761712973384 0.6430557854967356 0.0
1.6497396382756373 0.1172112347045523 0.0
3.2690117751695467 1.9481702301881965 0.0
3.0668614731106407 2.4016737730029152 0.0
3.1364310545991354 1.9750182823007469 0.0
1.2764725258410288 1.8020885702690870 0.0
3.0612193166656256 2.2020712123668660 0.0
3.4069750331103141 1.8393670162059614 0.0
3.4347581220458507 1.5811238249368567 0.0
3.3428746813109549 1.2731855471098661 0.0
1.6343675790391556 2.3298534126578447 0.0
3.3700328781151057 0.1042890933844466 0.0
1.8587873535874826 0.8141708442468281 0.0
3.4328526589171631 1.1424324841444051 0.0
3.3882848424162315 1.0337111015910505 0.0
2.8810260660433777 2.3037711558582039 0.0
3.3335947247400450 1.5058748832962385 0.0
3.0894806655966311 2.1962099488467639 0.0
3.2798632914966923 2.0921202518742352 0.0
3.5581407210299671 1.5634504597384229 0.0
3.4114081445202169 1.7614699612376608 0.0
1.8018451901086738 0.2528341962093835 0.0
2.9746985358494396 2.0615700773687795 0.0
3.3771050173508903 1.0892211832204870 0.0
3.1403694852095119 2.1074786629696156 0.0
3.3682946839994221 0.0757164420935996 0.0
3.2720140089781871 -0.1833066330572760 0.0
1.0996861197772763 1.2489438841501028 0.0
2.3763571475751344 -1.0145457982182806 0.0
3.1650211051051018 2.0783191463067556 0.0
3.2350071687817294 1.7829741254216342 0.0
3.1178663227541863 1.3786416534540769 0.0
3.3553870665629071 4.0412323812815316 0.0
0.9175205722876217 1.6688240318869709 0.0
3.0848835803178862 2.2579638473913697 0.0
1.6736711108740634 1.8721369006785789 0.0
3.2997560977542122 -0.5268472585104941 0.0
3.4028561239646349 0.6665837308995561 0.0
3.0519999567456066 2.1360234635430539 0.0
1.0956238810449128 0.8607176172587174 0.0
1.3340118826050276 2.2675673567892516 0.0
3.1061577776990834 2.9119878092200429 0.0
1.7163644363473511 2.9386996845524811 0.0
1.3030864399627189 1.9312953829730048 0.0
1.2939877555132726 1.6266399434028309 0.0
1.6702713415754711 3.0751342367840371 0.0
1.8956283194218562 1.3195576665159270 0.0
2.1993234377638493 -1.4036202018156156 0.0
2.7384780416028600 2.1819746464729750 0.0
1.1639019049657693 0.4972804317799537 0.0
1.1972693558217182 0.8913465945023452 0.0
3.5055009715184760 3.2401618747843894 0.0
1.7807590182963908 -0.0843756329217727 0.0
3.0218943555839890 0.7011357365481853 0.0
3.2132081155504926 0.1617497522047208 0.0
3.3445417969298612 2.0177136147757642 0.0
1.1255445482969653 3.3289854055333583 0.0
3.4768875213447972 0.7662078919347916 0.0
1.0508747924874551 0.6199607402683257 0.0
3.4719317126416147 -0.1076975291059701 0.0
3.0738025513061689 2.3456377151787762 0.0
1.3555094255813087 -0.0098274184315995 0.0
3.3479032114530090 -0.1098587933594280 0.0
3.3582833816779640 1.8007789775778984 0.0
3.5358634055899452 -1.2075287114696829 0.0
1.4972447961093243 0.1628118800618011 0.0
3.1904601715210923 1.8162751470967955 0.0
3.1085752433291955 2.1790549482272601 0.0
2.7854151295598060 1.9008005389745963 0.0
3.1219150413519943 2.1588886761730186 0.0
3.4870591143626695 1.5656446633239380 0.0
3.3174799772784573 1.2340547895925238 0.0
3.4299263958037804 3.5581125025164706 0.0
3.4081182655552134 1.5008393005654082 0.0
1.4684112537342289 0.8864586462833349 0.0
2.9977609442323341 3.3933685473157742 0.0
3.3048372654943559 1.6844997898100653 0.0
3.4267775765370900 1.5700804563999462 0.0
3.4669148914132437 1.4441158285970306 0.0
3.1065688709825405 2.2523445697701368 0.0
3.0703669287721649 2.1936838553671580 0.0
1.5770479583309394 -0.7807782089296156 0.0
3.5072524390512267 0.6259314341683355 0.0
3.2790347999080507 0.2978377636551701 0.0
1.6670681646010079 4.0614629296844900 0.0
2.7806508301191086 2.1980646167809907 0.0
1.0342009689140299 0.6869680712904129 0.0
3.1074204577107469 2.1407897395402316 0.0
3.4105406814540800 1.5025143165443362 0.0
3.3983441435155464 0.8967350956679349 0.0
3.2373483523779232 1.8474415755311937 0.0
3.1894871493606742 2.5636436334033728 0.0
3.4976190374912934 0.2518091831013657 0.0
3.4886146439183139 3.1885844782266064 0.0
3.2545458536533225 2.1920758647540048 0.0
3.1575471794732968 1.3240089597388551 0.0
3.6283848484917671 1.7984225380556520 0.0
3.1127118351574206 2.0352054878730521 0.0
3.6708157032578708 1.2507072217387598 0.0
3.3286804155834906 1.6795017842904194 0.0
2.9959720800176952 2.3536751904203577 0.0
3.1968982163585911 2.1956971782684049 0.0
3.4998832943796669 -0.2970413358561446 0.0
3.4287763173484858 3.8643652629643062 0.0
2.9485396188457074 2.2296831464579858 0.0
3.3667055769872096 1.4341593384673996 0.0
3.2230126404722559 0.5256076277748862 0.0
3.4621615548058302 0.5674461561244378 0.0
3.0709246148769540 0.8949739671675319 0.0
2.8908902730195503 2.7930468461031439 0.0
3.4433914681795308 4.5667465290211977 0.0
3.5149799901472902 2.4952847783457566 0.0
2.8994095178780741 1.7387068250839544 0.0
3.4022451151641810 1.7219763744346979 0.0
3.1850147408612477 2.0433823541857681 0.0
3.3180464126543883 -0.7460994922049101 0.0
3.3843436571607604 1.2456609584288900 0.0
2.7028616101984904 2.4123830630079794 0.0
3.3732965159819543 1.2845371463005131 0.0
3.0857126870517835 2.2577222023533099 0.0
3.3896040482288554 1.8395120556065527 0.0
3.3045317521652211 -0.0757646496718509 0.0
2.6615590749069851 1.8333413103499527 0.0
3.4215607328094957 0.8414034397277605 0.0
3.1624130157692507 0.1518899470820033 0.0
3.3646351779558099 1.9381719784002416 0.0
2.9820537892986825 1.7433156771546396 0.0
3.1256523935387550 2.3046160608534372 0.0
2.9333940220695025 4.7168824947416921 0.0
2.9771705620309312 1.5328338093946887 0.0
2.5497903210432913 3.1121850046877082 0.0
2.9369276149190875 2.1890409508697939 0.0
3.1763713987033673 3.3428150781989565 0.0
2.5721363317727191 1.9297393514687409 0.0
3.2160214774660032 0.2082372294231393 0.0
3.1398236894508962 2.1114540285282657 0.0
3.1320919830285954 2.1360505392460771 0.0
3.5669162411609343 1.5313886241190986 0.0
3.3126178875822587 1.4338321224569430 0.0
3.4197553533445202 0.4880640368722795 0.0
2.9076799740506374 1.1511160202703044 0.0
1.9224482267114080 1.8959826469406376 0.0
2.9221815748774436 1.4385179589197632 0.0
3.2000602890505090 -0.8483244567480549 0.0
3.0989010458721409 2.1785011118538611 0.0
3.3330350422935400 1.6324693134918451 0.0
2.4754208803883979 0.2519200344292618 0.0
2.6910844455026943 1.2821043202778279 0.0
3.3416832950380146 2.8733870226007272 0.0
1.9612267779968624 0.6921695508427229 0.0
1.8288454605883901 3.2603994683942261 0.0
1.9574577564584426 1.2185888233989934 0.0
3.2372018168178771 1.0755220443014164 0.0
1.8140709124484342 2.3391694840458008 0.0
1.5038320135127838 1.1086725541243641 0.0
2.2402967206597668 2.4264111820381498 0.0
2.7210569681072934 3.3268314441231159 0.0
3.6201880952828600 1.0392593355934625 0.0
3.0797074763326968 0.6148868116466719 0.0
3.1828212373548719 2.0378271517880244 0.0
3.3834435570892740 -0.6644639843431587 0.0
3.2645501468067550 1.7015118434866383 0.0
3.4963507069651518 1.3094275395293431 0.0
2.3366245813661792 -0.3643312115322448 0.0
2.0700829041047335 1.7738328793333697 0.0
3.0261782100352352 2.5179733862081366 0.0
1.8403367969363618 1.8218120352291514 0.0
3.2486877528356448 2.3065472257720776 0.0
3.2135905569224894 0.8031160272989256 0.0
1.9800360432650506 1.0303589414151970 0.0
1.6001369973328163 1.5989529728048979 0.0
3.3559652966737681 -0.3274088017249906 0.0
1.8187246571464550 2.0508854468609425 0.0
1.9874186424054936 1.0244213539347464 0.0
2.3110933026558853 0.3246499231297044 0.0
3.2009995284339836 2.1000990969673090 0.0
3.1317025585559604 0.3731788342328207 0.0
3.4464788649527009 -0.0113122627529847 0.0
1.5909037722090529 3.1032627868851068 0.0
1.6830674079191121 1.3261094140156431 0.0
3.3931070110191035 1.6625246127436741 0.0
1.9887004118028173 1.2462969267769637 0.0
1.6359397200766401 2.7631126120717684 0.0
3.4879193493181364 1.9786360218152996 0.0
2.0965048938611495 -0.2411080486992616 0.0
3.5368907171116830 0.8356978092172516 0.0
3.0177394627653031 2.6276871054950939 0.0
2.7845094632153025 -1.1777825970493478 0.0
3.2708368204976170 2.0114925340014396 0.0
3.2483045525034613 1.5796806572805178 0.0
3.3023519153284244 0.3368599668958091 0.0
1.9929382779728537 3.0447344990257195 0.0
3.2352026025867620 3.4626797418083073 0.0
2.4491736264290513 4.0136607477603290 0.0
1.3737203182691267 1.2657775368967892 0.0
3.0570311712917140 2.1942651290091248 0.0
1.5846527715219763 0.8531354276223289 0.0
3.5707099270243203 0.4114697037081679 0.0
2.3710016841075459 2.1527722391033519 0.0
3.3597256198177359 2.4729678869410496 0.0
2.8626889925279824 0.8788213196505921 0.0
1.2739994195812818 0.9592292435192502 0.0
3.5472701606805823 1.6799717195335913 0.0
3.2068992484185883 0.0147322645541644 0.0
3.6268771928005985 1.4204175406671191 0.0
2.5462734019490219 1.4026100728567321 0.0
0.7642471100340792 3.4574173556711694 0.0
1.3214723090641121 1.1771163669867835 0.0
3.3820349676225478 1.3811320670462983 0.0
1.5142183910743914 1.2746099777976045 0.0
1.8256593053562495 0.7555534474288680 0.0
3.1795079486580158 1.8884277910475711 0.0
1.9362106991153327 -0.3572999918214808 0.0
3.3318398633705524 1.8502678334802898 0.0
3.1254451497181814 1.1604508082589551 0.0
3.1731797424669490 2.2269655655086362 0.0
2.9698044131208281 2.9789962058446164 0.0
3.5749900017691498 3.0197064623948076 0.0
1.8186693789457649 0.4998087181685754 0.0
1.6992395288890993 2.4237755626033199 0.0
3.1378985167049365 2.1001903920598362 0.0
3.3843885097655590 -0.8904983961000467 0.0
1.2132306411370244 3.3075663021147816 0.0
1.9181639796383523 0.7701854068822568 0.0
1.4157870812340736 0.5909554711876408 0.0
1.7464775066717382 0.1339131286617047 0.0
3.2598288104084845 1.9322782818808955 0.0
3.0913907295274350 2.3685908099656698 0.0
3.0289350279065603 1.8986311772831257 0.0
1.2439590437829262 1.7518783341643220 0.0
3.0907089437590196 2.1824742389940304 0.0
3.4502037855132413 1.8640188091526997 0.0
3.4400929535807374 1.5926063982869640 0.0
3.2896702232401682 1.2908666595206302 0.0
1.6349183090480410 2.3241875806213819 0.0
3.3244989002484324 0.1597750735119416 0.0
1.7512584639777431 0.7758871648342146 0.0
3.4652065743073774 1.1739291354314834 0.0
3.3904754451971777 1.0699798149647304 0.0
2.7982836812346585 2.2128231001726042 0.0
3.2172097503933506 1.4687307450544320 0.0
3.0140068136993277 2.1247511710152174 0.0
3.4050754698948582 2.1664209036715567 0.0
3.6746220282621098 1.6082004795536502 0.0
3.3558096407547455 1.7426062443712220 0.0
1.8766624484003145 0.2687147063404157 0.0
3.0861118259722233 2.0808421258659431 0.0
3.5155372988091389 1.1424722418930509 0.0
3.0378405793617560 2.0392696478859840 0.0
3.4357599367644931 0.1057069585727384 0.0
3.2318321353178598 -0.1532067509122719 0.0
1.0765634599104428 1.2127382962895858 0.0
2.3770421171280502 -1.0145530911248430 0.0
3.2033770634030683 2.0906479501713764 0.0