# vtk DataFile Version 3.0
LucasCarvalhoTCC Results
ASCII

DATASET POLYDATA
FIELD FieldData 1
TIME 1 1 double
5.800000000000001

POINTS 531 float
0.02430399999999999 0.16425 0.0
0.5913384 0.481878 0.0
1.30475 0.591832 0.0
0.774126 0.951272 0.0
0.04779564148251592 0.1966194329439859 0.0
0.0726092153537953 0.2279866320496896 0.0
0.09876577335895967 0.2582426022760065 0.0
0.1262817198684718 0.2872673048853742 0.0
0.1551671626852806 0.3149288071400502 0.0
0.1854238368919928 0.3410826624766006 0.0
0.2170424591499632 0.3655716640299072 0.0
0.2499995164635996 0.3882263409476824 0.0
0.2842534387828506 0.4088665906889567 0.0
0.3197403359862048 0.4273050841371062 0.0
0.3563695945475563 0.4433531534921038 0.0
0.3940201673622058 0.4568300511916809 0.0
0.4325386107291805 0.4675762214989666 0.0
0.4717406913237268 0.4754709112408955 0.0
0.5114182513144845 0.480453442081874 0.0
0.5513531678859215 0.4825464217651069 0.0
0.6182637923774223 0.5096055604109244 0.0
0.647389101376845 0.5350126187545199 0.0
0.6784752958296183 0.5579802184492302 0.0
0.7112421079139344 0.5784810076698811 0.0
0.7454110434104482 0.5965507527581431 0.0
0.7807301979183381 0.6122562812860965 0.0
0.8169827939052532 0.6256694297140926 0.0
0.853985522124928 0.6368498290413532 0.0
0.8915818964261243 0.6458353363890481 0.0
0.9296339776508085 0.6526379336565091 0.0
0.9680139759519513 0.6572432424840469 0.0
1.006596418266983 0.659612648128084 0.0
1.045251165872634 0.6596877658251245 0.0
1.083837680945672 0.657397570658483 0.0
1.122201320191055 0.6526688455666412 0.0
1.160173053543044 0.6454405726452737 0.0
1.197574286953346 0.6356824063786186 0.0
1.23422961949795 0.6234159704281613 0.0
1.26998758503999 0.6087366500005643 0.0
1.285086682927543 0.6256533177085738 0.0
1.263669745906668 0.6583917156018083 0.0
1.240480125919214 0.6898988493917133 0.0
1.215532715641304 0.7200329197235763 0.0
1.188869833862339 0.7486599839005789 0.0
1.160556835593143 0.7756559317113654 0.0
1.130680194163798 0.8009104211039757 0.0
1.099347083827048 0.8243335727704395 0.0
1.066684425336412 0.8458643604021228 0.0
1.03283497048792 0.8654772531176074 0.0
0.9979492572630678 0.8831824104874066 0.0
0.9621749986495024 0.8990166556695112 0.0
0.9256475378616493 0.9130272060048579 0.0
0.8884846540507749 0.9252538945090274 0.0
0.8507866567183312 0.935715378288671 0.0
0.8126405010322847 0.9444016349017643 0.0
0.7365055179612304 0.9396161853607135 0.0
0.699310855231089 0.9266666891603924 0.0
0.6626179171945521 0.9123577070090924 0.0
0.6264901449910028 0.8966765244755546 0.0
0.5909789825447118 0.8796450886595113 0.0
0.556124897941028 0.8613059841617771 0.0
0.5219601957009091 0.8417124664434518 0.0
0.4885110616878257 0.8209207172498462 0.0
0.4558007060429968 0.7989848675704875 0.0
0.4238520247653796 0.775953675763176 0.0
0.3926900138417566 0.7518687036338616 0.0
0.3623437622133722 0.7267636709390595 0.0
0.3328479550295906 0.7006647540504483 0.0
0.3042438201183181 0.6735915983461908 0.0
0.2765795358619001 0.6455588748284606 0.0
0.2499101143933102 0.6165781952942546 0.0
0.2242967982692083 0.5866601984136335 0.0
0.1998060807431611 0.5558166834807132 0.0
0.1765083808984156 0.5240625786010467 0.0
0.154476512720734 0.491417660368959 0.0
0.133784033184808 0.457907916333494 0.0
0.114503564227142 0.4235664945146766 0.0
0.09670517293008124 0.3884342245925089 0.0
0.0804548910754031 0.3525597611689231 0.0
0.06581337946329963 0.3159993090744527 0.0
0.05283482490365372 0.2788161107032479 0.0
0.0415660226296666 0.2410796291505872 0.0
0.03204569406625649 0.2028646095712164 0.0
0.5272009874003867 0.6419624505772817 0.0
0.7421848286576707 0.7716726266421574 0.0
0.8789503364783713 0.7829234141383637 0.0
0.6149390992905563 0.7449438030688011 0.0
0.4064556042659638 0.5942834991165423 0.0
0.9875021850865396 0.7666507358101158 0.0
0.3188065960661005 0.539594034984892 0.0
0.61365100263957 0.6399487878797632 0.0
0.8049090660915541 0.8464379870891131 0.0
0.7099820328572021 0.6828840522539854 0.0
0.5239467234991928 0.7406922291088611 0.0
0.8154056325591208 0.7211774015928547 0.0
0.6676178829014909 0.8152713180209475 0.0
0.4416080359619968 0.674360953773491 0.0
0.489443615375965 0.5654986742123573 0.0
1.076665773779852 0.7387182918829318 0.0
0.250390543112057 0.4877450112830265 0.0
0.5736819937919005 0.5790366884881447 0.0
0.7263706755366466 0.8615301097563091 0.0
0.940143307772686 0.8233944909985552 0.0
0.927065543677544 0.7236459161626674 0.0
0.8744389806957806 0.8609114380468947 0.0
0.336888362650554 0.6081958070931937 0.0
0.2030757334857187 0.4383942902513459 0.0
0.3861483329720647 0.5255533415902591 0.0
0.5621001921466506 0.7923778419149285 0.0
0.6822897332295245 0.7428043323059399 0.0
0.5764061681675353 0.6881266532454204 0.0
1.129195449682892 0.7163224153578123 0.0
0.8157794419559141 0.7831214907157077 0.0
0.3806644703311284 0.6554275822782399 0.0
0.7695737871052837 0.669593045341503 0.0
0.4699375460410929 0.6217118815516158 0.0
0.6830867370872363 0.630350317562806 0.0
1.040416897214502 0.7929392348941093 0.0
0.4604428393605979 0.7321209818568342 0.0
0.8729552856459739 0.7015083313474691 0.0
1.017010765275644 0.7166925631396708 0.0
0.6458785458483771 0.6946878992565794 0.0
0.7733575582969163 0.8941098392103913 0.0
0.4457537579383052 0.5273353624588528 0.0
0.163830623786951 0.3903175742448083 0.0
0.6095823984734953 0.8256600013628639 0.0
0.2618074352614998 0.5435604438425528 0.0
0.6287880420949764 0.5875838132975476 0.0
0.3100402147222924 0.4835410260423071 0.0
0.5422177893302824 0.5343158927797464 0.0
0.9964262112680041 0.8213447667248638 0.0
0.4971609598823845 0.6906859160718212 0.0
0.5740517260168769 0.633982031239429 0.0
0.7423299505107201 0.7218768583704394 0.0
0.767147744476665 0.819658485932403 0.0
0.9427329070375209 0.7774595780066723 0.0
0.8375285793481674 0.8869398470561132 0.0
0.2879426409425497 0.5872676364411625 0.0
0.6797562629663748 0.8647676397847667 0.0
1.171674168522591 0.6949964056806914 0.0
0.5261010885606964 0.6055079299963303 0.0
0.7081534744446967 0.8078672678314597 0.0
0.9681672688626206 0.705385299758921 0.0
0.7364069054947873 0.6432919177737106 0.0
0.363826821075015 0.5678764295233764 0.0
0.826170216989844 0.6605791783255148 0.0
0.1284439337099834 0.3602715082199688 0.0
0.518140828090112 0.783905985497134 0.0
0.8452908336054504 0.8167586152211004 0.0
0.2015204468558833 0.492088055688788 0.0
0.4005883523205732 0.7121294304856254 0.0
0.3551392316798573 0.4864133323669936 0.0
0.2501727034998737 0.4443035857235296 0.0
0.857938396055507 0.7390317828783199 0.0
0.9245301815433076 0.8668102132501951 0.0
0.5702050292970205 0.7323438487067678 0.0
1.111607633075016 0.759318252473435 0.0
0.6317193755596126 0.7853891653733797 0.0
0.7921381265818805 0.7497379312370454 0.0
1.088942426366261 0.7015435214091311 0.0
0.5818207607488639 0.5352340257544296 0.0
0.4203532416309484 0.6369649631143086 0.0
0.4854818714173937 0.5131439318707094 0.0
0.4475429831528036 0.5690430472086269 0.0
0.8968753306595262 0.8225547516037004 0.0
0.6339557898063448 0.8543470494763272 0.0
0.3416564411796998 0.6516449771136894 0.0
1.082970576264455 0.7856036465430698 0.0
0.2255204648032354 0.5229464838393291 0.0
0.7335043541589261 0.9012744999286941 0.0
0.9097052989734319 0.6921177492721042 0.0
0.5363428275528405 0.6992389299864537 0.0
0.9657777897300287 0.8588269742066746 0.0
1.025947476617909 0.7556651119714124 0.0
0.1090829970454354 0.3226173037985549 0.0
0.4836644525169279 0.7663103281018557 0.0
0.6910856326166581 0.777867529208468 0.0
0.6694391877434097 0.5946719355048008 0.0
0.2954883530575775 0.4501042133334518 0.0
0.6746032498128595 0.6643957640016517 0.0
1.054636636429828 0.6974583960183274 0.0
0.8939255235163368 0.7470597914537064 0.0
0.3749741568555516 0.6190655430398917 0.0
1.204101441114554 0.6801433534918062 0.0
0.6130053345415899 0.6785345531932346 0.0
0.7679719108452487 0.8562682874000032 0.0
0.9710820219997449 0.8008372590855476 0.0
0.1608022352294362 0.4242591696906621 0.0
0.2865399820604418 0.5141369963640697 0.0
0.1962258775846918 0.4008383427744516 0.0
0.6210920174972845 0.5516143721732873 0.0
0.4843009180093644 0.6583977883024127 0.0
0.5695029195102991 0.8267073580550881 0.0
0.9562891163300477 0.7436031251145003 0.0
0.4174190173896447 0.5044019081507806 0.0
0.410860431802698 0.5535781448116232 0.0
0.8709320861791604 0.9002602580953145 0.0
0.427354757192076 0.7399041791280969 0.0
0.7107884943357746 0.7172753954970394 0.0
1.030382288537246 0.8267335242583146 0.0
0.7737440530215844 0.7115751739064536 0.0
0.8042035044852396 0.9123190309183211 0.0
0.0480920891272324 0.2181807374272496 0.0
0.3695079235280397 0.6886893012630373 0.0
0.773516204411121 0.7830673827025234 0.0
0.302776671534508 0.6210168062901616 0.0
0.7150573728414059 0.6149413270404035 0.0
0.5863276441271683 0.769748656022605 0.0
1.143752049005473 0.6780480059671409 0.0
0.6477132714923303 0.7318578097016951 0.0
0.8380052680878572 0.8531154611905379 0.0
0.5966224054445893 0.6051703156405629 0.0
0.3207240819522855 0.5772784374275386 0.0
0.3520131451607586 0.5263918604440553 0.0
0.8573528491808811 0.6709738722470224 0.0
0.1797236573643203 0.460867988842514 0.0
0.5540828191547277 0.6661566975721369 0.0
1.158039843450239 0.7357536542887966 0.0
0.08638006908591334 0.286237566592474 0.0
0.790861820497242 0.6466611559014377 0.0
0.5362079962218838 0.8121454698907893 0.0
0.9405172130232713 0.6862060282668497 0.0
0.6039359324506977 0.711463595189489 0.0
0.4440093493753478 0.6096873538428137 0.0
0.5500746279087338 0.7620941994763282 0.0
0.2578504496023611 0.5739900063885278 0.0
0.502526452350101 0.6209820553182169 0.0
0.6799833858912959 0.7033681517905728 0.0
0.7183487148906835 0.7518430858176317 0.0
0.8006701240044786 0.8118713608014352 0.0
0.1304684854221093 0.3934039266496895 0.0
1.00789495394612 0.7937868725857601 0.0
0.696960396255943 0.893370944718147 0.0
0.8258315165019564 0.7538365084989149 0.0
0.8462950259502577 0.775614153529746 0.0
0.4082018839227037 0.6749460331934272 0.0
0.7025889307788081 0.8378536687159448 0.0
0.4666676520109517 0.6984557076050861 0.0
[...]
POINT_DATA 531

VECTORS Velocity float
0.0000000000000000 1.0000000000000000 0.0
0.0000000000000000 1.0000000000000000 0.0
2.6381923317114486 -0.9593288403779145 0.0
1.7848141208664541 1.0219581701823639 0.0
0.0000000000000000 1.0000000000000000 0.0
0.0000000000000000 1.0000000000000000 0.0
0.0000000000000000 1.0000000000000000 0.0
0.0000000000000000 1.0000000000000000 0.0
0.0000000000000000 1.0000000000000000 0.0
0.0000000000000000 1.0000000000000000 0.0
0.0000000000000000 1.0000000000000000 0.0
0.0000000000000000 1.0000000000000000 0.0
0.0000000000000000 1.0000000000000000 0.0
0.0000000000000000 1.0000000000000000 0.0
0.0000000000000000 1.0000000000000000 0.0
0.0000000000000000 1.0000000000000000 0.0
0.0000000000000000 1.0000000000000000 0.0
0.0000000000000000 1.0000000000000000 0.0
0.0000000000000000 1.0000000000000000 0.0
0.0000000000000000 1.0000000000000000 0.0
0.0000000000000000 0.0000000000000000 0.0
0.0000000000000000 0.0000000000000000 0.0
0.0000000000000000 0.0000000000000000 0.0
0.0000000000000000 0.0000000000000000 0.0
0.0000000000000000 0.0000000000000000 0.0
0.0000000000000000 0.0000000000000000 0.0
0.0000000000000000 0.0000000000000000 0.0
0.0000000000000000 0.0000000000000000 0.0
0.0000000000000000 0.0000000000000000 0.0
0.0000000000000000 0.0000000000000000 0.0
0.0000000000000000 0.0000000000000000 0.0
0.0000000000000000 0.0000000000000000 0.0
0.0000000000000000 0.0000000000000000 0.0
0.0000000000000000 0.0000000000000000 0.0
0.0000000000000000 0.0000000000000000 0.0
0.0000000000000000 0.0000000000000000 0.0
0.0000000000000000 0.0000000000000000 0.0
0.0000000000000000 0.0000000000000000 0.0
0.0000000000000000 0.0000000000000000 0.0
2.6783015984785328 -1.7943050879139781 0.0
3.6706937399462976 -2.3036317965305995 0.0
3.7614812180649908 -2.2271588454084141 0.0
3.7624211130844731 -1.9755416038877902 0.0
3.8552404427980953 -1.7630273961646534 0.0
3.9624376229898921 -1.4658840605726828 0.0
4.0264432926597671 -1.3164104311690505 0.0
4.1597598218190850 -1.0950794924970488 0.0
4.1550039017763645 -0.8058640091627458 0.0
4.1438706221161317 -0.5431134350672039 0.0
4.0148442470736638 -0.2488693561361590 0.0
3.7946808772857765 0.0507281523629061 0.0
3.6027675655021518 0.2838091259962547 0.0
3.2357123500523204 0.5354387319492696 0.0
2.6050874620350735 1.0883287484193818 0.0
1.7573869999545229 0.9384390921826545 0.0
0.0000000000000000 0.0000000000000000 0.0
0.0000000000000000 0.0000000000000000 0.0
0.0000000000000000 0.0000000000000000 0.0
0.0000000000000000 0.0000000000000000 0.0
0.0000000000000000 0.0000000000000000 0.0
0.0000000000000000 0.0000000000000000 0.0
0.0000000000000000 0.0000000000000000 0.0
0.0000000000000000 0.0000000000000000 0.0
0.0000000000000000 0.0000000000000000 0.0
0.0000000000000000 0.0000000000000000 0.0
0.0000000000000000 0.0000000000000000 0.0
0.0000000000000000 0.0000000000000000 0.0
0.0000000000000000 0.0000000000000000 0.0
0.0000000000000000 0.0000000000000000 0.0
0.0000000000000000 0.0000000000000000 0.0
0.0000000000000000 0.0000000000000000 0.0
0.0000000000000000 0.0000000000000000 0.0
0.0000000000000000 0.0000000000000000 0.0
0.0000000000000000 0.0000000000000000 0.0
0.0000000000000000 0.0000000000000000 0.0
0.0000000000000000 0.0000000000000000 0.0
0.0000000000000000 0.0000000000000000 0.0
0.0000000000000000 0.0000000000000000 0.0
0.0000000000000000 0.0000000000000000 0.0
0.0000000000000000 0.0000000000000000 0.0
0.0000000000000000 0.0000000000000000 0.0
0.0000000000000000 0.0000000000000000 0.0
0.0000000000000000 0.0000000000000000 0.0
3.9980756626809955 2.6035102650870057 0.0
4.2955630154302220 2.1579291086843897 0.0
3.9101999919519677 1.1842835439299080 0.0
3.8344706991920945 2.2064125534620236 0.0
3.8197130829903267 2.9205723331032898 0.0
3.4321074652277872 0.0751496393866642 0.0
3.9085384399048282 3.4767660351865990 0.0
3.7779186749651110 2.4458124781137451 0.0
3.7545528336081495 1.9612602989435834 0.0
3.5763164345270102 1.7387879892404445 0.0
2.8402838958711873 1.7994814423061163 0.0
3.3496423255715690 1.3798185471635127 0.0
3.2185420756351291 1.6702514847225280 0.0
3.1611429942598486 2.3455011965001926 0.0
3.2679975305513254 2.5113072715103515 0.0
3.0217171975305157 -0.4993442629803991 0.0
3.6099215222103971 3.8487680367898593 0.0
2.5024044880622154 2.1149432437969509 0.0
2.9127118030791554 1.4076974241846432 0.0
3.9282745416860765 0.5399841130288492 0.0
2.3259718661849540 0.3661514445759224 0.0
3.6866119077590120 1.2314575042782372 0.0
2.7988473158403457 2.6311527851371048 0.0
3.4916780888420482 4.5880123932205636 0.0
3.6317046378564548 2.6434257694586192 0.0
2.2563288139704230 1.3266814441812553 0.0
4.3379292134666567 2.3528224581389652 0.0
4.0204475025513400 2.5828693640672475 0.0
2.8518391079605943 -0.7933266014878964 0.0
4.1192257942379937 1.8147843395373131 0.0
2.5161203173813056 2.0336432881466702 0.0
2.5382435509889376 1.0687491184414919 0.0
3.9321341958748608 2.7324441136425035 0.0
2.7091018663699384 1.3445545014520266 0.0
3.8240216220724670 -0.4290162265863934 0.0
1.9738129493223653 1.4365828478008467 0.0
2.2286002619971725 0.6129571236290428 0.0
2.0871574340525738 0.0404007779795468 0.0
4.1724145614248735 2.4783345916747166 0.0
2.6126237010437046 1.7139779924232403 0.0
2.8014514720484343 2.4555461433124863 0.0
2.9347220865866581 4.7381433975906351 0.0
2.3617774350498419 1.2605673615491917 0.0
2.5248523770628295 2.8796773090564289 0.0
2.1695761123207329 1.6408358177953397 0.0
3.2864064051066886 3.5019247201059573 0.0
1.8121654960757356 1.7688319953273131 0.0
3.9877541963611791 -0.0926010458909486 0.0
3.5045139618238417 2.2692640437509848 0.0
3.8827372302241310 2.5710512961815946 0.0
3.9934356204626007 2.0031876564085089 0.0
4.0549052712137774 2.1096636991119908 0.0
3.6297508003832317 0.4544680881654091 0.0
3.1172057971407696 1.5955938033109098 0.0
1.6450957194274611 1.6768987842206415 0.0
2.2487430000656641 1.0707329591271393 0.0
2.8654324484600910 -1.0480858856166699 0.0
3.7265428869968891 2.5613519284448509 0.0
3.8862758795730330 1.9903827632403566 0.0
1.4157997884623512 0.0742229581042917 0.0
2.0094141494900817 1.0921320671412391 0.0
3.7352817258466087 3.1682358996649862 0.0
1.1096248890899758 0.4426828310052208 0.0
1.8313767976947162 3.2599902616601502 0.0
1.4767440993687659 0.8549020662947905 0.0
3.9926709612586753 1.5808558074263681 0.0
1.8405666078287026 2.2639678205210041 0.0
1.0939702159091911 0.7273065663702223 0.0
2.1232835331849209 2.3896183366588089 0.0
2.7846643727577671 3.3820499608330792 0.0
3.3301604896039105 1.0978726957561444 0.0
3.8238923434809946 0.6538716586020917 0.0
3.5824811506509322 2.2297306016631855 0.0
3.7619995841651219 -1.1267870470756978 0.0
3.2931893454671761 1.7749884701357148 0.0
4.0258566202177715 1.7993092149739718 0.0
1.6407533043615250 -0.3337002662406603 0.0
1.4066963863132445 1.5079982152038960 0.0
3.4472663999799722 2.5935077636704005 0.0
1.2838295145930205 1.8021443052942141 0.0
3.6025088731628010 2.7479051368637717 0.0
3.9336418184941051 1.0873408593774567 0.0
1.4672699691929372 0.7775525912772994 0.0
1.3696005215036229 1.3064520868730287 0.0
3.9156234519500859 -0.9289196764999280 0.0
1.8248224514723013 1.8424465662453160 0.0
1.5132820381630319 0.8484277565922791 0.0
1.2495732968821420 0.1578938785119925 0.0
3.7161626944430952 2.3598509872937554 0.0
4.0173390228677466 0.1535642855837480 0.0
3.1424781619474218 -0.3106394917627410 0.0
1.5934208929863158 3.1018865837386564 0.0
1.1912870261722510 1.0100074306871245 0.0
4.1102616922124069 2.1538247903078744 0.0
1.3138647259408101 0.7936735297308243 0.0
1.5297486334216446 2.7802476988013076 0.0
3.6716833135917826 2.0953604452259906 0.0
1.3277521246932984 -0.2684586272125886 0.0
3.3234283691408275 0.8003733574542964 0.0
3.1585362733793221 2.4960238571662110 0.0
2.6858378438544652 -1.4076881418085632 0.0
4.0930335338856088 2.6118296874188274 0.0
3.4386675091157137 1.9654497267324649 0.0
3.8163101350437842 0.2172656250546961 0.0
2.0000893835557072 3.0560265821151145 0.0
3.6269532978748762 3.6730794785694556 0.0
2.4430426065731567 4.0338032903821750 0.0
0.8439976315277863 0.8003243648418180 0.0
3.7646859103301469 2.5506202909256475 0.0
1.0653995621625119 0.5631989814030484 0.0
2.8511170204361309 0.2504909845287541 0.0
2.1209720406000176 2.2102629214122094 0.0
3.5960370365798919 2.8409984869600535 0.0
3.1211095374632789 1.0498473664470862 0.0
0.8283836087285116 0.5952120904565281 0.0
4.1536354178203938 2.0571486906246106 0.0
4.1167698097672929 -0.4558137423028081 0.0
3.5536390779436933 1.6398722342862859 0.0
2.2914367605009103 1.5832586335947765 0.0
0.7641786054239310 3.4574472034200197 0.0
0.9873096186758745 0.8485719054595737 0.0
4.2466345583905829 2.0303231356070688 0.0
1.3048267872896528 1.0405470454700643 0.0
1.2201640863754013 0.4748739462220565 0.0
3.1280836346055416 1.8511677901527759 0.0
1.4067757316805094 -0.2952432900560888 0.0
4.2653717137907341 2.4518061269979134 0.0
3.7400855959702799 1.6864413838067978 0.0
3.1639635506458448 2.2120069072703519 0.0
2.8936939601322096 2.9994998400734412 0.0
3.9312869928720540 3.2627681647666216 0.0
0.9507537013968304 0.2992016063954051 0.0
1.7262034036923986 2.4100601661983019 0.0
4.0646922718359564 2.5483631606217396 0.0
3.6905147959697242 -1.4027728203925021 0.0
1.2131528520454062 3.3076046066161235 0.0
1.1581710022159291 0.4746301324840170 0.0
0.9490430656755814 0.3786195125591149 0.0
0.8947460130328032 0.0537984288918936 0.0
4.1187639900776460 2.4670726593365799 0.0
3.8355082434440941 2.8501677643453287 0.0
2.7535818110195893 1.6199561987258211 0.0
1.0306227210178001 1.4841017971947561 0.0
3.9599666423734319 2.6533614279589286 0.0
4.1594006454250732 2.3630358192272478 0.0
4.3026024295420084 2.2178961909544737 0.0
4.0879439663558443 1.9441440688491169 0.0
1.6335564715733970 2.3202422663251223 0.0
3.8018998094015162 -0.1673946424038349 0.0
1.2196839887245980 0.6144217930457710 0.0
3.8564110520106984 1.5446522609611057 0.0
3.9432525574753092 1.4255367072888685 0.0
2.5588126443360588 1.7535858571712373 0.0
3.0786332467116919 1.5179903393893277 0.0
3.0736545325145110 2.0833393425681206 0.0
3.0629653045357608 1.9369888075940165 0.0
3.3507840887175053 1.7715941068873808 0.0
4.0007825710336853 2.2672434908677301 0.0
1.0449902840747123 0.1440780303271459 0.0
2.8655230918703030 2.1271556779571932 0.0
2.4039609161382711 0.8505585300558139 0.0
2.7371993221282849 1.9877036730225506 0.0
2.4163960728245435 -0.0439306412548496 0.0
4.1448933534844059 -0.7623705455641789 0.0
0.9397260712445187 0.9564574878818375 0.0
2.3130064056877528 -1.0760700525035500 0.0
4.0774360161545324 2.5926791739800987 0.0
2.8389739223496475 1.4295138997340548 0.0
3.1275807275913516 1.8635777520332164 0.0
3.4918119218566490 3.9778946034553320 0.0
0.5220137575840688 1.6424215511822049 0.0
3.7494104151549856 2.7537540025684746 0.0
1.5502725594328584 1.8408986008908967 0.0
2.9127625521724756 -0.7007521529475182 0.0
3.7788281280187523 0.8303031494345460 0.0
3.6241990556166646 2.4720758679268635 0.0
0.6314831747688479 0.4991124570758904 0.0
1.2012708896578184 2.2395269476077657 0.0
3.1056313188081042 2.7511105262947155 0.0
1.7179908960478889 2.9227318614824256 0.0
1.0186695051718158 1.8917238272220993 0.0
0.8135819221064363 1.5835716732032308 0.0
1.6637078252399824 3.0813957461605623 0.0
1.4418436631970377 1.1798457157169708 0.0
2.1903350295065755 -1.4148644972874744 0.0
2.1148892688795100 1.5707573281232539 0.0
0.6631208912584907 0.2926667015125197 0.0
0.7630157265642402 0.5773153083422331 0.0
3.9209248035489885 3.4619398919177073 0.0
1.2621529563589748 -0.0782344420997331 0.0
3.3917315198699418 0.8356071529168456 0.0
4.0960007657129776 -0.1746301024460493 0.0
3.8993764716779560 2.4020603325645302 0.0
1.1250736407461266 3.3292141659383718 0.0
2.5033863198329116 0.6917236046321394 0.0
0.5930539568567263 0.3567541712202731 0.0
3.4608077629153540 -0.4858576448723433 0.0
3.6883364480819743 2.6463176725481556 0.0
0.7445732357476159 -0.0156750206559163 0.0
2.5807781603652180 -0.2698327414651294 0.0
2.6481138093707264 1.4229844475237066 0.0
3.6935353332015874 -1.7354717530452164 0.0
0.7937971428171096 0.1055252710812984 0.0
2.4204423224461751 1.5341839212777704 0.0
2.8541642809372396 2.4204677132542400 0.0
2.2151658281091229 1.9606027458842423 0.0
3.9169810944949832 2.5306461673713647 0.0
3.7762936750810061 1.9404930551876824 0.0
2.4939656128930703 1.1033382881427243 0.0
3.7093321203982308 3.7864416928060312 0.0
4.1896785024095946 2.1297542324658254 0.0
0.9338927258546815 0.5964433284305616 0.0
3.1438979967219352 3.2360949946906987 0.0
2.7162951266973625 1.6713141599975678 0.0
4.2227959870761680 2.2122187589045130 0.0
4.1405259442804168 2.0348546838422101 0.0
3.1029859130855857 2.1896354455890257 0.0
3.7399281073927906 2.5817544115625890 0.0
1.2606240078052939 -0.7697902893081711 0.0
3.2842714921369689 0.6459892523381958 0.0
3.9967551657379188 0.1391949820263540 0.0
1.6698204553384224 4.0683862781039482 0.0
2.2519334831981088 1.8648012300746430 0.0
0.7059077281833954 0.6015264771007194 0.0
4.0063156161658604 2.5974028358799903 0.0
4.2919412200845111 2.1633344038523048 0.0
3.9103118812128796 1.1933812991984307 0.0
3.8204555703461645 2.1981327107581485 0.0
3.8232414227186062 2.9137312478036588 0.0
3.4323904062107977 0.0788739608347446 0.0
3.9096597911428939 3.4744989826484773 0.0
3.7951500186031466 2.4548517079593624 0.0
3.7396225026104126 1.9675626301908697 0.0
3.5950026215978581 1.7504998119697754 0.0
2.8239746008285738 1.7854691579809963 0.0
3.3633208840821820 1.3902305378733391 0.0
3.1980290375591083 1.6624084360700819 0.0
3.1541944887226143 2.3315657459986769 0.0
3.2819491300524191 2.5082836036780938 0.0
3.0217273406521996 -0.4993190075905453 0.0
3.6098297582389631 3.8489899602919273 0.0
2.5196474645564151 2.1200220705992217 0.0
2.8945318098117285 1.4042221147168870 0.0
3.9247384143729001 0.5452494775377095 0.0
2.3311947922500211 0.3703342372892652 0.0
3.6772432420886934 1.2361897569102727 0.0
2.7983432698206041 2.6268527468065419 0.0
3.4915984087183900 4.5880937605610983 0.0
3.6354253315347393 2.6416621002391376 0.0
2.2375719480323371 1.3157127347107394 0.0
4.3376367175624235 2.3550792193208734 0.0
4.0188551146900364 2.5773747462980503 0.0
2.8517958951982205 -0.7934199644730145 0.0
4.1174813927376057 1.8255660771926498 0.0
2.5121261081649622 2.0257324110946668 0.0
2.5560461275965825 1.0775612744392598 0.0
3.9383782238047682 2.7226702143455004 0.0
2.7298893106277373 1.3553619964710437 0.0
3.8240314026575386 -0.4282466311793547 0.0
1.9612343541199242 1.4253820121780700 0.0
2.2391778725405440 0.6176064694711851 0.0
2.0876479209568370 0.0414429123195042 0.0
4.1811504868271783 2.4838971874802196 0.0
2.5989948687488531 1.7135686026711632 0.0
2.8098830159203034 2.4546898450430308 0.0
2.9347125458924905 4.7381540244040972 0.0
2.3430181041721307 1.2508488529271233 0.0
2.5252277974421116 2.8797276259473548 0.0
2.1870461180211067 1.6523295860874994 0.0
3.2864399949946215 3.5015111011086693 0.0
1.8258533520040625 1.7705084232496597 0.0
3.9863424232838054 -0.0904132656401566 0.0
3.4943651948340828 2.2548115686913448 0.0
3.8972908021609451 2.5722040403562239 0.0
4.0062862413677571 2.0125476013269941 0.0
4.0402831070161929 2.1134199253070314 0.0
3.6293263944584151 0.4601047207846728 0.0
3.1083519643125990 1.5979629011205148 0.0
1.6451567232335826 1.6761450291164397 0.0
2.2309136289950970 1.0642774799690948 0.0
2.8654152054035773 -1.0481456875784410 0.0
3.7404945961969260 2.5595563622478053 0.0
3.8683165154031123 1.9862953415204323 0.0
1.4183231146579962 0.0764892410117482 0.0
2.0261482810393292 1.1009888534965491 0.0
3.7373568930359600 3.1639324356357137 0.0
1.1193923583623204 0.4469628752829232 0.0
1.8313755795237252 3.2599924586555118 0.0
1.4634366548953075 0.8461949454874274 0.0
3.9847057358405205 1.5895205147153184 0.0
1.8406174692541377 2.2642071211090329 0.0
1.0883153765012605 0.7218764868659510 0.0
2.1245999221079166 2.3889063957391983 0.0
2.7843688829568101 3.3820638934973282 0.0
3.3384079604371566 1.1071012221047642 0.0
3.8191725377392682 0.6571222588939114 0.0
3.5689688959359511 2.2178020089207915 0.0
3.7621008735135097 -1.1269597581898687 0.0
3.2730844139282937 1.7654045407336203 0.0
4.0332070356220928 1.8097341882498732 0.0
1.6405534732379603 -0.3337799664851304 0.0
1.4182443295698886 1.5124909151544230 0.0
3.4459571939387752 2.5834623728776767 0.0
1.2913665657409963 1.8024155758945404 0.0
3.6112494045888432 2.7427811599946539 0.0
3.9280780423234565 1.0950370950606509 0.0
1.4531413515360496 0.7706932352397524 0.0
1.3675518150535557 1.3026668208151853 0.0
3.9158273248755493 -0.9289560547313116 0.0
1.8249980396071275 1.8427311036763705 0.0
1.5032000342418927 0.8467466760364886 0.0
1.2548565595814125 0.1605931020060172 0.0
3.7062127975705370 2.3482787331299706 0.0
4.0150421211785128 0.1554005852060816 0.0
3.1427500428959094 -0.3089896449365871 0.0
1.5934212873252380 3.1018860753078212 0.0
1.1801112764032449 0.9999346499563119 0.0
4.0969342661633625 2.1511855761916334 0.0
1.3279061959950775 0.8017885824591474 0.0
1.5294219754007443 2.7801410257729424 0.0
3.6909504750122708 2.1062915016110453 0.0
1.3276039872410366 -0.2682712367826239 0.0
3.3272345148809559 0.8082136184810864 0.0
3.1582320774202524 2.4883554516030730 0.0
2.6858375646245887 -1.4076902159065010 0.0
4.1014294101321722 2.6150741264871207 0.0
3.4210072576706825 1.9659977435209910 0.0
3.8149332909312781 0.2210380097539110 0.0
2.0000743745962621 3.0560685834322818 0.0
3.6272202025821190 3.6726033325038792 0.0
2.4429983042015948 4.0338198876652447 0.0
0.8531057435173772 0.8074638037587318 0.0
3.7630152368933802 2.5378238685485508 0.0
1.0535199675498290 0.5570798803206322 0.0
2.8535440544003516 0.2546979128929603 0.0
2.1255083843931621 2.2098221753098364 0.0
3.6022016729367765 2.8370838117334660 0.0
3.1152295935355196 1.0522222254346485 0.0
0.8218431224358289 0.5894974543857310 0.0
4.1652894253978019 2.0658843446907982 0.0
4.1164138453251606 -0.4551688907657176 0.0
3.5692903822186186 1.6506459216841538 0.0
2.2843544019815631 1.5836724492999406 0.0
0.7641786054239311 3.4574472034200205 0.0
0.9836192472699467 0.8438836608074847 0.0
4.2422055555402123 2.0382072384714274 0.0
1.3044371122528504 1.0392081518718261 0.0
1.2340140027926745 0.4810227362236064 0.0
3.1081173266937263 1.8395614854115478 0.0
1.4067013941045909 -0.2952609928071452 0.0
4.2637381000690944 2.4522549454112981 0.0
3.7272169002415714 1.6913941896220104 0.0
3.1833143410793867 2.2202305780971763 0.0
2.8935997256902932 2.9965802805503574 0.0
3.9336374673481234 3.2608995754051771 0.0
0.9583277305725936 0.3020876282864517 0.0
1.7262059131313525 2.4101727786646889 0.0
4.0681989980791515 2.5430936854274746 0.0
3.6905416020697537 -1.4028767284339281 0.0
1.2131529819584974 3.3076046128216903 0.0
1.1695178834059889 0.4797793580591441 0.0
0.9374198460027592 0.3734721536407357 0.0
0.8983620597023950 0.0550987799559598 0.0
4.1159424577954447 2.4626603925662627 0.0
3.8408057272224791 2.8405246732864637 0.0
2.7349796400985578 1.6073686972842491 0.0
1.0308352148255318 1.4839854073603627 0.0
3.9682660663532365 2.6450614731361193 0.0
4.1702906853145398 2.3707034659350890 0.0
4.3040373490867756 2.2224538793008457 0.0
4.0769374110879033 1.9521249223375534 0.0
1.6335523189098906 2.3202486629116668 0.0
3.8015483719961405 -0.1649797390314084 0.0
1.2095469478088627 0.6106248152738323 0.0
3.8625713714448526 1.5554652449736113 0.0
3.9435803287599889 1.4370955161470775 0.0
2.5528049008756755 1.7443863468222878 0.0
3.0587649075632415 1.5136913028262504 0.0
3.0631071450395275 2.0694053507398467 0.0
3.0841450868979439 1.9491760598055052 0.0
3.3698852135161070 1.7822049609940811 0.0
3.9860335599012084 2.2624579723635869 0.0
1.0460492508842709 0.1447911613330540 0.0
2.8826473248871527 2.1272982858602552 0.0
2.4172461461883925 0.8583505958545637 0.0
2.7229081309568799 1.9741926445027895 0.0
2.4179056284850460 -0.0412898074734639 0.0
4.1449956468750404 -0.7622810918117542 0.0
0.9399340336006373 0.9566682379398431 0.0
2.3130076117185543 -1.0760681626466400 0.0