# vtk DataFile Version 3.0
LucasCarvalhoTCC Results
ASCII

DATASET POLYDATA
FIELD FieldData 1
TIME 1 1 double
4.0

POINTS 531 float
0.02430399999999999 0.16425 0.0
0.5913384 0.481878 0.0
1.30475 0.591832 0.0
0.774126 0.951272 0.0
0.04779564148251592 0.1966194329439859 0.0
0.0726092153537953 0.2279866320496896 0.0
0.09876577335895967 0.2582426022760065 0.0
0.1262817198684718 0.2872673048853742 0.0
0.1551671626852806 0.3149288071400502 0.0
0.1854238368919928 0.3410826624766006 0.0
0.2170424591499632 0.3655716640299072 0.0
0.2499995164635996 0.3882263409476824 0.0
0.2842534387828506 0.4088665906889567 0.0
0.3197403359862048 0.4273050841371062 0.0
0.3563695945475563 0.4433531534921038 0.0
0.3940201673622058 0.4568300511916809 0.0
0.4325386107291805 0.4675762214989666 0.0
0.4717406913237268 0.4754709112408955 0.0
0.5114182513144845 0.480453442081874 0.0
0.5513531678859215 0.4825464217651069 0.0
0.6182637923774223 0.5096055604109244 0.0
0.647389101376845 0.5350126187545199 0.0
0.6784752958296183 0.5579802184492302 0.0
0.7112421079139344 0.5784810076698811 0.0
0.7454110434104482 0.5965507527581431 0.0
0.7807301979183381 0.6122562812860965 0.0
0.8169827939052532 0.6256694297140926 0.0
0.853985522124928 0.6368498290413532 0.0
0.8915818964261243 0.6458353363890481 0.0
0.9296339776508085 0.6526379336565091 0.0
0.9680139759519513 0.6572432424840469 0.0
1.006596418266983 0.659612648128084 0.0
1.045251165872634 0.6596877658251245 0.0
1.083837680945672 0.657397570658483 0.0
1.122201320191055 0.6526688455666412 0.0
1.160173053543044 0.6454405726452737 0.0
1.197574286953346 0.6356824063786186 0.0
1.23422961949795 0.6234159704281613 0.0
1.26998758503999 0.6087366500005643 0.0
1.285086682927543 0.6256533177085738 0.0
1.263669745906668 0.6583917156018083 0.0
1.240480125919214 0.6898988493917133 0.0
1.215532715641304 0.7200329197235763 0.0
1.188869833862339 0.7486599839005789 0.0
1.160556835593143 0.7756559317113654 0.0
1.130680194163798 0.8009104211039757 0.0
1.099347083827048 0.8243335727704395 0.0
1.066684425336412 0.8458643604021228 0.0
1.03283497048792 0.8654772531176074 0.0
0.9979492572630678 0.8831824104874066 0.0
0.9621749986495024 0.8990166556695112 0.0
0.9256475378616493 0.9130272060048579 0.0
0.8884846540507749 0.9252538945090274 0.0
0.8507866567183312 0.935715378288671 0.0
0.8126405010322847 0.9444016349017643 0.0
0.7365055179612304 0.9396161853607135 0.0
0.699310855231089 0.9266666891603924 0.0
0.6626179171945521 0.9123577070090924 0.0
0.6264901449910028 0.8966765244755546 0.0
0.5909789825447118 0.8796450886595113 0.0
0.556124897941028 0.8613059841617771 0.0
0.5219601957009091 0.8417124664434518 0.0
0.4885110616878257 0.8209207172498462 0.0
0.4558007060429968 0.7989848675704875 0.0
0.4238520247653796 0.775953675763176 0.0
0.3926900138417566 0.7518687036338616 0.0
0.3623437622133722 0.7267636709390595 0.0
0.3328479550295906 0.7006647540504483 0.0
0.3042438201183181 0.6735915983461908 0.0
0.2765795358619001 0.6455588748284606 0.0
0.2499101143933102 0.6165781952942546 0.0
0.2242967982692083 0.5866601984136335 0.0
0.1998060807431611 0.5558166834807132 0.0
0.1765083808984156 0.5240625786010467 0.0
0.154476512720734 0.491417660368959 0.0
0.133784033184808 0.457907916333494 0.0
0.114503564227142 0.4235664945146766 0.0
0.09670517293008124 0.3884342245925089 0.0
0.0804548910754031 0.3525597611689231 0.0
0.06581337946329963 0.3159993090744527 0.0
0.05283482490365372 0.2788161107032479 0.0
0.0415660226296666 0.2410796291505872 0.0
0.03204569406625649 0.2028646095712164 0.0
0.5272009874003867 0.6419624505772817 0.0
0.7421848286576707 0.7716726266421574 0.0
0.8789503364783713 0.7829234141383637 0.0
0.6149390992905563 0.7449438030688011 0.0
0.4064556042659638 0.5942834991165423 0.0
0.9875021850865396 0.7666507358101158 0.0
0.3188065960661005 0.539594034984892 0.0
0.61365100263957 0.6399487878797632 0.0
0.8049090660915541 0.8464379870891131 0.0
0.7099820328572021 0.6828840522539854 0.0
0.5239467234991928 0.7406922291088611 0.0
0.8154056325591208 0.7211774015928547 0.0
0.6676178829014909 0.8152713180209475 0.0
0.4416080359619968 0.674360953773491 0.0
0.489443615375965 0.5654986742123573 0.0
1.076665773779852 0.7387182918829318 0.0
0.250390543112057 0.4877450112830265 0.0
0.5736819937919005 0.5790366884881447 0.0
0.7263706755366466 0.8615301097563091 0.0
0.940143307772686 0.8233944909985552 0.0
0.927065543677544 0.7236459161626674 0.0
0.8744389806957806 0.8609114380468947 0.0
0.336888362650554 0.6081958070931937 0.0
0.2030757334857187 0.4383942902513459 0.0
0.3861483329720647 0.5255533415902591 0.0
0.5621001921466506 0.7923778419149285 0.0
0.6822897332295245 0.7428043323059399 0.0
0.5764061681675353 0.6881266532454204 0.0
1.129195449682892 0.7163224153578123 0.0
0.8157794419559141 0.7831214907157077 0.0
0.3806644703311284 0.6554275822782399 0.0
0.7695737871052837 0.669593045341503 0.0
0.4699375460410929 0.6217118815516158 0.0
0.6830867370872363 0.630350317562806 0.0
1.040416897214502 0.7929392348941093 0.0
0.4604428393605979 0.7321209818568342 0.0
0.8729552856459739 0.7015083313474691 0.0
1.017010765275644 0.7166925631396708 0.0
0.6458785458483771 0.6946878992565794 0.0
0.7733575582969163 0.8941098392103913 0.0
0.4457537579383052 0.5273353624588528 0.0
0.163830623786951 0.3903175742448083 0.0
0.6095823984734953 0.8256600013628639 0.0
0.2618074352614998 0.5435604438425528 0.0
0.6287880420949764 0.5875838132975476 0.0
0.3100402147222924 0.4835410260423071 0.0
0.5422177893302824 0.5343158927797464 0.0
0.9964262112680041 0.8213447667248638 0.0
0.4971609598823845 0.6906859160718212 0.0
0.5740517260168769 0.633982031239429 0.0
0.7423299505107201 0.7218768583704394 0.0
0.767147744476665 0.819658485932403 0.0
0.9427329070375209 0.7774595780066723 0.0
0.8375285793481674 0.8869398470561132 0.0
0.2879426409425497 0.5872676364411625 0.0
0.6797562629663748 0.8647676397847667 0.0
1.171674168522591 0.6949964056806914 0.0
0.5261010885606964 0.6055079299963303 0.0
0.7081534744446967 0.8078672678314597 0.0
0.9681672688626206 0.705385299758921 0.0
0.7364069054947873 0.6432919177737106 0.0
0.363826821075015 0.5678764295233764 0.0
0.826170216989844 0.6605791783255148 0.0
0.1284439337099834 0.3602715082199688 0.0
0.518140828090112 0.783905985497134 0.0
0.8452908336054504 0.8167586152211004 0.0
0.2015204468558833 0.492088055688788 0.0
0.4005883523205732 0.7121294304856254 0.0
0.3551392316798573 0.4864133323669936 0.0
0.2501727034998737 0.4443035857235296 0.0
0.857938396055507 0.7390317828783199 0.0
0.9245301815433076 0.8668102132501951 0.0
0.5702050292970205 0.7323438487067678 0.0
1.111607633075016 0.759318252473435 0.0
0.6317193755596126 0.7853891653733797 0.0
0.7921381265818805 0.7497379312370454 0.0
1.088942426366261 0.7015435214091311 0.0
0.5818207607488639 0.5352340257544296 0.0
0.4203532416309484 0.6369649631143086 0.0
0.4854818714173937 0.5131439318707094 0.0
0.4475429831528036 0.5690430472086269 0.0
0.8968753306595262 0.8225547516037004 0.0
0.6339557898063448 0.8543470494763272 0.0
0.3416564411796998 0.6516449771136894 0.0
1.082970576264455 0.7856036465430698 0.0
0.2255204648032354 0.5229464838393291 0.0
0.7335043541589261 0.9012744999286941 0.0
0.9097052989734319 0.6921177492721042 0.0
0.5363428275528405 0.6992389299864537 0.0
0.9657777897300287 0.8588269742066746 0.0
1.025947476617909 0.7556651119714124 0.0
0.1090829970454354 0.3226173037985549 0.0
0.4836644525169279 0.7663103281018557 0.0
0.6910856326166581 0.777867529208468 0.0
0.6694391877434097 0.5946719355048008 0.0
0.2954883530575775 0.4501042133334518 0.0
0.6746032498128595 0.6643957640016517 0.0
1.054636636429828 0.6974583960183274 0.0
0.8939255235163368 0.7470597914537064 0.0
0.3749741568555516 0.6190655430398917 0.0
1.204101441114554 0.6801433534918062 0.0
0.6130053345415899 0.6785345531932346 0.0
0.7679719108452487 0.8562682874000032 0.0
0.9710820219997449 0.8008372590855476 0.0
0.1608022352294362 0.4242591696906621 0.0
0.2865399820604418 0.5141369963640697 0.0
0.1962258775846918 0.4008383427744516 0.0
0.6210920174972845 0.5516143721732873 0.0
0.4843009180093644 0.6583977883024127 0.0
0.5695029195102991 0.8267073580550881 0.0
0.9562891163300477 0.7436031251145003 0.0
0.4174190173896447 0.5044019081507806 0.0
0.410860431802698 0.5535781448116232 0.0
0.8709320861791604 0.9002602580953145 0.0
0.427354757192076 0.7399041791280969 0.0
0.7107884943357746 0.7172753954970394 0.0
1.030382288537246 0.8267335242583146 0.0
0.7737440530215844 0.7115751739064536 0.0
0.8042035044852396 0.9123190309183211 0.0
0.0480920891272324 0.2181807374272496 0.0
0.3695079235280397 0.6886893012630373 0.0
0.773516204411121 0.7830673827025234 0.0
0.302776671534508 0.6210168062901616 0.0
0.7150573728414059 0.6149413270404035 0.0
0.5863276441271683 0.769748656022605 0.0
1.143752049005473 0.6780480059671409 0.0
0.6477132714923303 0.7318578097016951 0.0
0.8380052680878572 0.8531154611905379 0.0
0.5966224054445893 0.6051703156405629 0.0
0.3207240819522855 0.5772784374275386 0.0
0.3520131451607586 0.5263918604440553 0.0
0.8573528491808811 0.6709738722470224 0.0
0.1797236573643203 0.460867988842514 0.0
0.5540828191547277 0.6661566975721369 0.0
1.158039843450239 0.7357536542887966 0.0
0.08638006908591334 0.286237566592474 0.0
0.790861820497242 0.6466611559014377 0.0
0.5362079962218838 0.8121454698907893 0.0
0.9405172130232713 0.6862060282668497 0.0
0.6039359324506977 0.711463595189489 0.0
0.4440093493753478 0.6096873538428137 0.0
0.5500746279087338 0.7620941994763282 0.0
0.2578504496023611 0.5739900063885278 0.0
0.502526452350101 0.6209820553182169 0.0
0.6799833858912959 0.7033681517905728 0.0
0.7183487148906835 0.7518430858176317 0.0
0.8006701240044786 0.8118713608014352 0.0
0.1304684854221093 0.3934039266496895 0.0
1.00789495394612 0.7937868725857601 0.0
0.696960396255943 0.893370944718147 0.0
0.8258315165019564 0.7538365084989149 0.0
0.8462950259502577 0.775614153529746 0.0
0.4082018839227037 0.6749460331934272 0.0
0.7025889307788081 0.8378536687159448 0.0
0.4666676520109517 0.6984557076050861 0.0
[...]
POINT_DATA 531

VECTORS Velocity float
0.0000000000000000 1.0000000000000000 0.0
0.0000000000000000 1.0000000000000000 0.0
2.6381830482099664 -0.9593348276149990 0.0
1.7804363525440974 1.0220580537976824 0.0
0.0000000000000000 1.0000000000000000 0.0
0.0000000000000000 1.0000000000000000 0.0
0.0000000000000000 1.0000000000000000 0.0
0.0000000000000000 1.0000000000000000 0.0
0.0000000000000000 1.0000000000000000 0.0
0.0000000000000000 1.0000000000000000 0.0
0.0000000000000000 1.0000000000000000 0.0
0.0000000000000000 1.0000000000000000 0.0
0.0000000000000000 1.0000000000000000 0.0
0.0000000000000000 1.0000000000000000 0.0
0.0000000000000000 1.0000000000000000 0.0
0.0000000000000000 1.0000000000000000 0.0
0.0000000000000000 1.0000000000000000 0.0
0.0000000000000000 1.0000000000000000 0.0
0.0000000000000000 1.0000000000000000 0.0
0.0000000000000000 1.0000000000000000 0.0
0.0000000000000000 0.0000000000000000 0.0
0.0000000000000000 0.0000000000000000 0.0
0.0000000000000000 0.0000000000000000 0.0
0.0000000000000000 0.0000000000000000 0.0
0.0000000000000000 0.0000000000000000 0.0
0.0000000000000000 0.0000000000000000 0.0
0.0000000000000000 0.0000000000000000 0.0
0.0000000000000000 0.0000000000000000 0.0
0.0000000000000000 0.0000000000000000 0.0
0.0000000000000000 0.0000000000000000 0.0
0.0000000000000000 0.0000000000000000 0.0
0.0000000000000000 0.0000000000000000 0.0
0.0000000000000000 0.0000000000000000 0.0
0.0000000000000000 0.0000000000000000 0.0
0.0000000000000000 0.0000000000000000 0.0
0.0000000000000000 0.0000000000000000 0.0
0.0000000000000000 0.0000000000000000 0.0
0.0000000000000000 0.0000000000000000 0.0
0.0000000000000000 0.0000000000000000 0.0
2.6782999483237622 -1.7943048043821499 0.0
3.6708361662231224 -2.3037576112239289 0.0
3.7613964672080518 -2.2276055573057656 0.0
3.7616455756189611 -1.9742032239202993 0.0
3.8471988350516448 -1.7558891457057761 0.0
3.9395376141569178 -1.4481080776041553 0.0
3.9890630026538636 -1.2837048729069660 0.0
4.0943919711160843 -1.0505212144507270 0.0
4.0496824627091552 -0.7428735553069785 0.0
4.0197769438324409 -0.4755330750483705 0.0
3.8821586480364485 -0.1857685598472514 0.0
3.6671957589872606 0.1026774021126696 0.0
3.4909870869936892 0.3280343635671202 0.0
3.1544172666220387 0.5629898857381365 0.0
2.5652447483280989 1.0882705570313731 0.0
1.7582514832883915 0.9481471669896486 0.0
0.0000000000000000 0.0000000000000000 0.0
0.0000000000000000 0.0000000000000000 0.0
0.0000000000000000 0.0000000000000000 0.0
0.0000000000000000 0.0000000000000000 0.0
0.0000000000000000 0.0000000000000000 0.0
0.0000000000000000 0.0000000000000000 0.0
0.0000000000000000 0.0000000000000000 0.0
0.0000000000000000 0.0000000000000000 0.0
0.0000000000000000 0.0000000000000000 0.0
0.0000000000000000 0.0000000000000000 0.0
0.0000000000000000 0.0000000000000000 0.0
0.0000000000000000 0.0000000000000000 0.0
0.0000000000000000 0.0000000000000000 0.0
0.0000000000000000 0.0000000000000000 0.0
0.0000000000000000 0.0000000000000000 0.0
0.0000000000000000 0.0000000000000000 0.0
0.0000000000000000 0.0000000000000000 0.0
0.0000000000000000 0.0000000000000000 0.0
0.0000000000000000 0.0000000000000000 0.0
0.0000000000000000 0.0000000000000000 0.0
0.0000000000000000 0.0000000000000000 0.0
0.0000000000000000 0.0000000000000000 0.0
0.0000000000000000 0.0000000000000000 0.0
0.0000000000000000 0.0000000000000000 0.0
0.0000000000000000 0.0000000000000000 0.0
0.0000000000000000 0.0000000000000000 0.0
0.0000000000000000 0.0000000000000000 0.0
0.0000000000000000 0.0000000000000000 0.0
3.9502983048084599 2.5957513947608351 0.0
4.2655884553825087 2.0868790685440253 0.0
3.9200905979741090 1.1497562572268218 0.0
3.8359658634262721 2.2073411343318612 0.0
3.8105417985925021 2.9213172135531500 0.0
3.4909152015499512 0.1069609812589948 0.0
3.9064071570022776 3.4814320000141374 0.0
3.7363617513045191 2.4389916515723429 0.0
3.7177685274845018 1.8899704628286349 0.0
3.5657357267201335 1.7168398393231248 0.0
2.8676806309553773 1.8322546748454893 0.0
3.3993159255172292 1.3532749206539167 0.0
3.2527485502502791 1.6746067102100384 0.0
3.1647918526263044 2.3628926209387817 0.0
3.2636937817929006 2.4953348331515341 0.0
3.0562702268865105 -0.4735077124310602 0.0
3.6093951368793364 3.8497102676200372 0.0
2.5077510903387603 2.1187492194828659 0.0
2.9421390285045463 1.4019902898157559 0.0
3.8808952784812707 0.5458056843213802 0.0
2.4276167988635091 0.3775947906536679 0.0
3.6188037487494333 1.1985694419565567 0.0
2.8017686759360312 2.6401246282894344 0.0
3.4917197389191492 4.5880114143681343 0.0
3.6250296455436288 2.6427148450163123 0.0
2.3037240847687994 1.3554568376375606 0.0
4.3072751262472924 2.3088228448397832 0.0
3.9819089545025115 2.5780808895880845 0.0
2.8679334021305500 -0.7866738840695560 0.0
4.0996533001095381 1.7455160688171314 0.0
2.5231401217602363 2.0479173134072042 0.0
2.5662150679761355 1.0607071412536084 0.0
3.9018737424707388 2.7220750702176386 0.0
2.7038946373987653 1.3474920190385178 0.0
3.8175637522742405 -0.3720637765762780 0.0
2.0014205765156854 1.4611879732136124 0.0
2.3146460128562212 0.6252265089645904 0.0
2.1578030234648518 0.0575900874300285 0.0
4.1290083040453780 2.4529203574772627 0.0
2.6232976976623816 1.7006272159765026 0.0
2.7978028960434802 2.4497433687301138 0.0
2.9347536114441559 4.7381272903807234 0.0
2.4071263196153803 1.2844435066527440 0.0
2.5249915831352649 2.8817057270358077 0.0
2.1748267420699023 1.6524958122480318 0.0
3.2840235162017857 3.5022906802611589 0.0
1.8278684554432145 1.7698697083734845 0.0
3.9331673521355444 -0.0407808108125901 0.0
3.5025515263249680 2.2900887959375060 0.0
3.8330715286971007 2.5615508702249699 0.0
3.9842399038862815 1.9475479851373407 0.0
4.0252889123768902 2.0406207353893469 0.0
3.6678018810782045 0.4684198585846074 0.0
3.0686276779615613 1.5592552349124114 0.0
1.6466991095665293 1.6799813745185670 0.0
2.2924113477784664 1.0855838938458671 0.0
2.8708984487559195 -1.0414619482733525 0.0
3.6955833975592767 2.5482396130582035 0.0
3.8883617745619170 1.9652440584945423 0.0
1.4885548099197168 0.0851365823850964 0.0
2.0168324574102576 1.0811580216414172 0.0
3.7318814362313284 3.1726143868028012 0.0
1.1447752091777459 0.4491467895689036 0.0
1.8313805692075056 3.2599837959760847 0.0
1.5067476075246391 0.8765904349813054 0.0
3.9498977678867089 1.5217332144938207 0.0
1.8405226671440496 2.2640644069639482 0.0
1.1053899843764721 0.7387429604094934 0.0
2.1191070216676540 2.3899667342765065 0.0
2.7844172194995203 3.3822539873569650 0.0
3.3971754146169943 1.0844466720877555 0.0
3.7246995935471769 0.6617150291641034 0.0
3.5863112913444182 2.2479389230193685 0.0
3.7611486186631282 -1.0997503553780912 0.0
3.3273002080300147 1.7876771395989959 0.0
4.0278586299028740 1.7383996844785499 0.0
1.6653701988081855 -0.3276587754876906 0.0
1.4199665061206002 1.5134968952904839 0.0
3.4425525857220842 2.6036597989182391 0.0
1.2872951516919711 1.7988616788206593 0.0
3.5930258414408724 2.7363153441701966 0.0
3.8833003467809646 1.0560351904518717 0.0
1.4997839446348036 0.7939120217172834 0.0
1.3740925818490894 1.3141515752056845 0.0
3.9031018307701291 -0.8732388304080254 0.0
1.8247584701484822 1.8430091212257342 0.0
1.5320454949495932 0.8484675383888926 0.0
1.3166172902975277 0.1608748888088178 0.0
3.7052902932518839 2.3746965863757676 0.0
3.9023465236708028 0.1938181011180888 0.0
3.1982579134924349 -0.2684911111841752 0.0
1.5934203382338883 3.1018877083225354 0.0
1.2144659411346037 1.0317972903892014 0.0
4.1030215936019596 2.1206741834764005 0.0
1.3155666204612411 0.7981035010704521 0.0
1.5290023363127414 2.7802489148891327 0.0
3.6453675266026799 2.0787332094304469 0.0
1.3618136080861181 -0.2609659361724917 0.0
3.4000538141712977 0.7978975949067935 0.0
3.1600645634516003 2.5076708697056005 0.0
2.6866181724474805 -1.4061666768470469 0.0
4.0432034902178149 2.5902773041391995 0.0
3.4356551098815831 1.9244590923812639 0.0
3.8139567414504629 0.2439707534305799 0.0
2.0001066912672321 3.0559536202931379 0.0
3.6254502117394813 3.6753169343075207 0.0
2.4431261278698635 4.0337803265279106 0.0
0.8504993374695304 0.8087143557361990 0.0
3.7420899249344779 2.5554634510117391 0.0
1.0933383813240911 0.5778194657459228 0.0
2.9444604725083363 0.2692449335324785 0.0
2.1159200836346486 2.2073021297682969 0.0
3.5885833731670238 2.8371666714441850 0.0
3.0558842143396023 1.0412683005780921 0.0
0.8419740224395035 0.6079510553525428 0.0
4.1309738589370957 2.0138459450358868 0.0
4.0407614187091605 -0.3882386918479485 0.0
3.5736045379540680 1.6016013102240576 0.0
2.2801047615381895 1.5708803737013137 0.0
0.7641786057573134 3.4574472053642911 0.0
0.9948045699350566 0.8578807346039391 0.0
4.2139968470188371 1.9534404834740948 0.0
1.3069108947632175 1.0441422869367674 0.0
1.2205943213734149 0.4736295667271642 0.0
3.1649822438230193 1.8739209068219997 0.0
1.4162150778771081 -0.2935848910187004 0.0
4.2322308198875227 2.4243476416167264 0.0
3.6884656539583407 1.6339829166486806 0.0
3.1471692757905019 2.2162981258223389 0.0
2.8956352979391515 3.0061782971436712 0.0
3.9250693187204848 3.2643786450673096 0.0
0.9926446620726622 0.3066037368855324 0.0
1.7261584664656706 2.4099774491480956 0.0
4.0148972930951388 2.5456225809257438 0.0
3.6895795681446106 -1.3851675867939188 0.0
1.2131523677583240 3.3076047304301111 0.0
1.1814349811419957 0.4795516845304526 0.0
0.9748184159592399 0.3891154952532573 0.0
0.9464702895524740 0.0561166262228255 0.0
4.0844901668478295 2.4568075125573974 0.0
3.8188555749078095 2.8444149944335102 0.0
2.7907677177681940 1.6506421343309998 0.0
1.0311963306773191 1.4859502814207814 0.0
3.9226263635129039 2.6418176416255208 0.0
4.1244762683432441 2.3267635523056893 0.0
4.2750817922219104 2.1581112716379116 0.0
4.0489404849782433 1.8644178474580539 0.0
1.6335726051036792 2.3202195525341791 0.0
3.8035676466466932 -0.1126014241279973 0.0
1.2423593275568772 0.6209972982761608 0.0
3.8765802904296538 1.5014942636499125 0.0
3.9485382977677643 1.3797394387025681 0.0
2.5679756684823243 1.7725548202047516 0.0
3.1073462367751636 1.5099273580413919 0.0
3.0809916631125995 2.1056491510192616 0.0
3.0501712226130619 1.9376742471080528 0.0
3.3584800461232422 1.7359550002375443 0.0
4.0024038233724681 2.2473767623295591 0.0
1.0950043581024280 0.1550513592639592 0.0
2.8680413119286419 2.1216824695543584 0.0
2.4802307429153281 0.8560204546145441 0.0
2.7595471304101262 2.0124518169161028 0.0
2.5043494747938331 -0.0222143277753418 0.0
4.0896127317160031 -0.6902100764673884 0.0
0.9399600369419128 0.9572341302927220 0.0
2.3130366866783638 -1.0760935033936205 0.0
4.0204959252921908 2.5801624185305707 0.0
2.8356109784144241 1.4253159298577136 0.0
3.1066356213244575 1.8159354734688034 0.0
3.4915480398959380 3.9780856577386801 0.0
0.5302149507341812 1.6423956637577062 0.0
3.7328524614736405 2.7360294607054656 0.0
1.5451885276936406 1.8403899363677780 0.0
2.9342938387529554 -0.6804718571966272 0.0
3.7973160713472724 0.8230987240272063 0.0
3.5947902590187968 2.4629953707669223 0.0
0.6442521360784118 0.5117133553116676 0.0
1.2001768425099453 2.2396642673962321 0.0
3.1057881684198474 2.7552192637096380 0.0
1.7180548296159477 2.9227855691745463 0.0
1.0164815742340056 1.8893528930383396 0.0
0.8222656299372566 1.5828918773268423 0.0
1.6637498724212869 3.0813959757750879 0.0
1.4498159373942430 1.1745626915817584 0.0
2.1902629972180132 -1.4149571480988137 0.0
2.1334335659772705 1.5949493564468769 0.0
0.6819391295638676 0.2984095644243450 0.0
0.7677131803914312 0.5826910727043976 0.0
3.9162890572987004 3.4636410539539169 0.0
1.2747146316475959 -0.0756861172798957 0.0
3.3034449467491704 0.8349449398857384 0.0
3.9840651880447755 -0.1123024419266657 0.0
3.8591394706011801 2.3877477986171600 0.0
1.1250736846166254 3.3292141412562901 0.0
2.6041451236138484 0.6967533583341201 0.0
0.6096226564967956 0.3678614902980737 0.0
3.4907477654400290 -0.4339468843162791 0.0
3.6741278490562399 2.6531959995098044 0.0
0.7790000982479112 -0.0117966014551274 0.0
2.6376882451776242 -0.2409520393347008 0.0
2.6976669923958667 1.4486444172958355 0.0
3.6939432218338508 -1.7275833741368294 0.0
0.8345154444020574 0.1081255248901880 0.0
2.4725743890216036 1.5586947836955036 0.0
2.8558345095935556 2.4083143909838967 0.0
2.2269310129168751 1.9532173764768963 0.0
3.8833835746519885 2.5337721459461013 0.0
3.7783774174363636 1.9054340676084376 0.0
2.5429453610920398 1.0980664974920176 0.0
3.7079580478840386 3.7868600505099761 0.0
4.1633828643525765 2.0679659602831157 0.0
0.9466890377310405 0.5985998482488871 0.0
3.1437968090252841 3.2377754065860294 0.0
2.7354716854917411 1.6567466677400204 0.0
4.2005963617195334 2.1575839221760398 0.0
4.1271877836590214 1.9675294424615863 0.0
3.0866333746918508 2.1954943317843254 0.0
3.7183501243659665 2.5668030118323291 0.0
1.2625933573577206 -0.7689046562928052 0.0
3.3647364047119255 0.6514551076376022 0.0
3.9256538856316667 0.1783750411093450 0.0
1.6698358131442561 4.0683853163620016 0.0
2.2615080263187992 1.8765880654065183 0.0
0.7132702767714920 0.6025134193213562 0.0
3.9640922892834007 2.5866099386634560 0.0
4.2596391083412124 2.0943842549696208 0.0
3.9197538897191970 1.1666788346248715 0.0
3.8103591637648031 2.1920903574061943 0.0
3.8173482926627651 2.9075495114972312 0.0
3.4915613541564570 0.1161501831857895 0.0
3.9093506659012469 3.4755821529616555 0.0
3.7673493140188086 2.4567206694867791 0.0
3.6876989963324629 1.9004183602206326 0.0
3.6005066830215835 1.7376122384170072 0.0
2.8368592091106866 1.8070210679291305 0.0
3.4273934431296178 1.3711840006396097 0.0
3.2151179241762704 1.6592669933401147 0.0
3.1488447250831366 2.3369018781644542 0.0
3.2919491629153863 2.4914479919473513 0.0
3.0565274614120863 -0.4727241046373198 0.0
3.6095222586743465 3.8495798054696273 0.0
2.5401832469390508 2.1299941736328845 0.0
2.9075147597385094 1.3946927627443670 0.0
3.8713533608678197 0.5570932837218818 0.0
2.4409551193916359 0.3863557262277749 0.0
3.5981471657528328 1.2078991273829707 0.0
2.7993230890396590 2.6295224003203606 0.0
3.4915958225006074 4.5881190337623403 0.0
3.6348400021113525 2.6393292965145161 0.0
2.2693978071319889 1.3354444907242899 0.0
4.3073165426879587 2.3119181629742602 0.0
3.9780722373881496 2.5690919986748644 0.0
2.8678472970612767 -0.7868533124086992 0.0
4.0962384868249178 1.7637506612880751 0.0
2.5130867353495070 2.0308637072988809 0.0
2.6003996859176945 1.0763483881551057 0.0
3.9124320059196909 2.7055241520464079 0.0
2.7418965040698637 1.3673854458611865 0.0
3.8167716356117714 -0.3690566372438154 0.0
1.9765210736550336 1.4404249627568644 0.0
2.3382824838137637 0.6342220829948091 0.0
2.1602502151870087 0.0607487067991643 0.0
4.1449989750898126 2.4631838347560295 0.0
2.5964556319437286 1.6994498402974991 0.0
2.8170911199603519 2.4488925866590696 0.0
2.9347245569159552 4.7381497893874078 0.0
2.3727830573163242 1.2665296227480618 0.0
2.5255609987138401 2.8807463805316313 0.0
2.2070787099982878 1.6745161592842548 0.0
3.2852401619219904 3.5014676780911551 0.0
1.8552339461229430 1.7738106796975439 0.0
3.9282867823357579 -0.0347771981278053 0.0
3.4813039202212765 2.2647735353179117 0.0
3.8588270736203851 2.5655717098403010 0.0
4.0091302460489153 1.9627831684211672 0.0
3.9970120759164955 2.0457299086552116 0.0
3.6663572402678590 0.4806328302820261 0.0
3.0498971016800467 1.5635864842336478 0.0
1.6459585359843272 1.6771516656716317 0.0
2.2592370669388320 1.0730454674245351 0.0
2.8708432477472381 -1.0416148754079519 0.0
3.7212165943264099 2.5473760953412055 0.0
3.8553187303182868 1.9560241887814638 0.0
1.4961804426441780 0.0904583278931700 0.0
2.0479215858444193 1.0969181907729544 0.0
3.7364002894395245 3.1630008852670981 0.0
1.1648346568176424 0.4572588376807191 0.0
1.8313751992335203 3.2599916988046624 0.0
1.4821904571762541 0.8607940826114177 0.0
3.9328365785510409 1.5373659339666477 0.0
1.8406253118867566 2.2643503539725836 0.0
1.0930478095230796 0.7276292368414279 0.0
2.1235670140519107 2.3886557470320717 0.0
2.7841249851522596 3.3821726483133854 0.0
3.4150858412906504 1.1010996434602456 0.0
3.7130131383033449 0.6686936718852694 0.0
3.5610160652353482 2.2265909756514022 0.0
3.7614118375397925 -1.0999878189915475 0.0
3.2906453586463869 1.7697720626811300 0.0
4.0429202094380186 1.7554918960462542 0.0
1.6650089485599333 -0.3276467651846502 0.0
1.4423758547074010 1.5228342538229163 0.0
3.4380307807610251 2.5836760692093517 0.0
1.3039455023987900 1.8000040923448766 0.0
3.6115331089526479 2.7273048202809131 0.0
3.8698203427863609 1.0711139962130607 0.0
1.4737842931310163 0.7811092250990340 0.0
1.3684444346711913 1.3050437707181664 0.0
3.9033989862406844 -0.8726802051757945 0.0
1.8250395759794427 1.8430977535618698 0.0
1.5126021752847798 0.8450626121565248 0.0
1.3299329568615923 0.1662768097496786 0.0
3.6855697922933790 2.3545518893278019 0.0
3.8957179969788909 0.1984510304819225 0.0
3.1992082245049458 -0.2632839463226404 0.0
1.5934204990859560 3.1018866100557267 0.0
1.1933773037286679 1.0133943523355986 0.0
4.0790357426335069 2.1143433334987072 0.0
1.3412117395362988 0.8131224542789478 0.0
1.5289152724511561 2.7801233288190441 0.0
3.6806402183656148 2.0986657331158467 0.0
1.3620304986486556 -0.2600867614583318 0.0
3.4090445045343074 0.8129172649737382 0.0
3.1578637966849077 2.4908445875894505 0.0
2.6866141038193208 -1.4061899557174156 0.0
4.0580991349476898 2.5968698689758041 0.0
3.4011934182772636 1.9242565453260800 0.0
3.8096381156080161 0.2529186050170010 0.0
2.0000833484357989 3.0560513632158655 0.0
3.6266374312519294 3.6734841246905323 0.0
2.4430243738881994 4.0338080326731616 0.0
0.8675678578958291 0.8225033635835016 0.0
3.7366694091927797 2.5333456597933228 0.0
1.0716785655078356 0.5666243076481946 0.0
2.9511534432670219 0.2787899446961969 0.0
2.1273426942694083 2.2069928621776103 0.0
3.6028239814890131 2.8297248102293393 0.0
3.0429857652271610 1.0462167059450085 0.0
0.8286949575347515 0.5968837489055843 0.0
4.1532208806651489 2.0285945569484407 0.0
4.0387710297826072 -0.3859109989745894 0.0
3.6043457168629494 1.6197563217646713 0.0
2.2656653758652960 1.5715506579799381 0.0
0.7641786057573136 3.4574472053642911 0.0
0.9860563252221054 0.8476643925247000 0.0
4.2059815965620544 1.9656716995301959 0.0
1.3049717547926873 1.0400826291038152 0.0
1.2459009269187393 0.4847721630819482 0.0
3.1284296589183560 1.8526591859186303 0.0
1.4160061305504192 -0.2936205757905923 0.0
4.2294664443490060 2.4249467143551593 0.0
3.6613208929796426 1.6431592856195707 0.0
3.1825667817219214 2.2331400331543332 0.0
2.8945872252885292 2.9983801614654753 0.0
3.9317886980075141 3.2602928357141159 0.0
1.0093319776819030 0.3123358200483180 0.0
1.7261900392802498 2.4101768058136726 0.0
4.0196959544467763 2.5376806652085895 0.0
3.6896884472646150 -1.3854170504056387 0.0
1.2131528268928014 3.3076047281929162 0.0
1.2034977575793033 0.4891421476118339 0.0
0.9535724457125753 0.3797560389811030 0.0
0.9563626296100914 0.0589845373704332 0.0
4.0790093701064771 2.4490477966866271 0.0
3.8286202712134010 2.8266568467848172 0.0
2.7564499625018946 1.6278798348401935 0.0
1.0311008630906697 1.4846412619230203 0.0
3.9369426539107226 2.6286290738136096 0.0
4.1447417648287050 2.3402457374991092 0.0
4.2786056928032838 2.1645238308362718 0.0
4.0272322943667946 1.8774126905879831 0.0
1.6335614479524008 2.3202453547628723 0.0
3.8017166879787179 -0.1057789780007069 0.0
1.2230441939975296 0.6136678988672126 0.0
3.8894117963802244 1.5199411057852559 0.0
3.9492318757547262 1.4003042848310638 0.0
2.5537851597937453 1.7538400534680589 0.0
3.0702081557454113 1.5007169211883706 0.0
3.0589299643975356 2.0804237941977779 0.0
3.0888159633779284 1.9604750589088060 0.0
3.3946324791992395 1.7540864581335351 0.0
3.9757141029811049 2.2379396434831920 0.0
1.0990795353560983 0.1571205883658612 0.0
2.9011193497700756 2.1236744067600166 0.0
2.5084772270873947 0.8702928545100851 0.0
2.7316535924491490 1.9884009850026116 0.0
2.5092419389955629 -0.0155099225487115 0.0
4.0892312492193144 -0.6893533740386807 0.0
0.9400905902205270 0.9570514398616182 0.0
2.3130360992877876 -1.0760903961737036 0.0