# vtk DataFile Version 3.0
LucasCarvalhoTCC Results
ASCII

DATASET POLYDATA
FIELD FieldData 1
TIME 1 1 double
0.8

POINTS 531 float
0.02430399999999999 0.16425 0.0
0.5913384 0.481878 0.0
1.30475 0.591832 0.0
0.774126 0.951272 0.0
0.04779564148251592 0.1966194329439859 0.0
0.0726092153537953 0.2279866320496896 0.0
0.09876577335895967 0.2582426022760065 0.0
0.1262817198684718 0.2872673048853742 0.0
0.1551671626852806 0.3149288071400502 0.0
0.1854238368919928 0.3410826624766006 0.0
0.2170424591499632 0.3655716640299072 0.0
0.2499995164635996 0.3882263409476824 0.0
0.2842534387828506 0.4088665906889567 0.0
0.3197403359862048 0.4273050841371062 0.0
0.3563695945475563 0.4433531534921038 0.0
0.3940201673622058 0.4568300511916809 0.0
0.4325386107291805 0.4675762214989666 0.0
0.4717406913237268 0.4754709112408955 0.0
0.5114182513144845 0.480453442081874 0.0
0.5513531678859215 0.4825464217651069 0.0
0.6182637923774223 0.5096055604109244 0.0
0.647389101376845 0.5350126187545199 0.0
0.6784752958296183 0.5579802184492302 0.0
0.7112421079139344 0.5784810076698811 0.0
0.7454110434104482 0.5965507527581431 0.0
0.7807301979183381 0.6122562812860965 0.0
0.8169827939052532 0.6256694297140926 0.0
0.853985522124928 0.6368498290413532 0.0
0.8915818964261243 0.6458353363890481 0.0
0.9296339776508085 0.6526379336565091 0.0
0.9680139759519513 0.6572432424840469 0.0
1.006596418266983 0.659612648128084 0.0
1.045251165872634 0.6596877658251245 0.0
1.083837680945672 0.657397570658483 0.0
1.122201320191055 0.6526688455666412 0.0
1.160173053543044 0.6454405726452737 0.0
1.197574286953346 0.6356824063786186 0.0
1.23422961949795 0.6234159704281613 0.0
1.26998758503999 0.6087366500005643 0.0
1.285086682927543 0.6256533177085738 0.0
1.263669745906668 0.6583917156018083 0.0
1.240480125919214 0.6898988493917133 0.0
1.215532715641304 0.7200329197235763 0.0
1.188869833862339 0.7486599839005789 0.0
1.160556835593143 0.7756559317113654 0.0
1.130680194163798 0.8009104211039757 0.0
1.099347083827048 0.8243335727704395 0.0
1.066684425336412 0.8458643604021228 0.0
1.03283497048792 0.8654772531176074 0.0
0.9979492572630678 0.8831824104874066 0.0
0.9621749986495024 0.8990166556695112 0.0
0.9256475378616493 0.9130272060048579 0.0
0.8884846540507749 0.9252538945090274 0.0
0.8507866567183312 0.935715378288671 0.0
0.8126405010322847 0.9444016349017643 0.0
0.7365055179612304 0.9396161853607135 0.0
0.699310855231089 0.9266666891603924 0.0
0.6626179171945521 0.9123577070090924 0.0
0.6264901449910028 0.8966765244755546 0.0
0.5909789825447118 0.8796450886595113 0.0
0.556124897941028 0.8613059841617771 0.0
0.5219601957009091 0.8417124664434518 0.0
0.4885110616878257 0.8209207172498462 0.0
0.4558007060429968 0.7989848675704875 0.0
0.4238520247653796 0.775953675763176 0.0
0.3926900138417566 0.7518687036338616 0.0
0.3623437622133722 0.7267636709390595 0.0
0.3328479550295906 0.7006647540504483 0.0
0.3042438201183181 0.6735915983461908 0.0
0.2765795358619001 0.6455588748284606 0.0
0.2499101143933102 0.6165781952942546 0.0
0.2242967982692083 0.5866601984136335 0.0
0.1998060807431611 0.5558166834807132 0.0
0.1765083808984156 0.5240625786010467 0.0
0.154476512720734 0.491417660368959 0.0
0.133784033184808 0.457907916333494 0.0
0.114503564227142 0.4235664945146766 0.0
0.09670517293008124 0.3884342245925089 0.0
0.0804548910754031 0.3525597611689231 0.0
0.06581337946329963 0.3159993090744527 0.0
0.05283482490365372 0.2788161107032479 0.0
0.0415660226296666 0.2410796291505872 0.0
0.03204569406625649 0.2028646095712164 0.0
0.5272009874003867 0.6419624505772817 0.0
0.7421848286576707 0.7716726266421574 0.0
0.8789503364783713 0.7829234141383637 0.0
0.6149390992905563 0.7449438030688011 0.0
0.4064556042659638 0.5942834991165423 0.0
0.9875021850865396 0.7666507358101158 0.0
0.3188065960661005 0.539594034984892 0.0
0.61365100263957 0.6399487878797632 0.0
0.8049090660915541 0.8464379870891131 0.0
0.7099820328572021 0.6828840522539854 0.0
0.5239467234991928 0.7406922291088611 0.0
0.8154056325591208 0.7211774015928547 0.0
0.6676178829014909 0.8152713180209475 0.0
0.4416080359619968 0.674360953773491 0.0
0.489443615375965 0.5654986742123573 0.0
1.076665773779852 0.7387182918829318 0.0
0.250390543112057 0.4877450112830265 0.0
0.5736819937919005 0.5790366884881447 0.0
0.7263706755366466 0.8615301097563091 0.0
0.940143307772686 0.8233944909985552 0.0
0.927065543677544 0.7236459161626674 0.0
0.8744389806957806 0.8609114380468947 0.0
0.336888362650554 0.6081958070931937 0.0
0.2030757334857187 0.4383942902513459 0.0
0.3861483329720647 0.5255533415902591 0.0
0.5621001921466506 0.7923778419149285 0.0
0.6822897332295245 0.7428043323059399 0.0
0.5764061681675353 0.6881266532454204 0.0
1.129195449682892 0.7163224153578123 0.0
0.8157794419559141 0.7831214907157077 0.0
0.3806644703311284 0.6554275822782399 0.0
0.7695737871052837 0.669593045341503 0.0
0.4699375460410929 0.6217118815516158 0.0
0.6830867370872363 0.630350317562806 0.0
1.040416897214502 0.7929392348941093 0.0
0.4604428393605979 0.7321209818568342 0.0
0.8729552856459739 0.7015083313474691 0.0
1.017010765275644 0.7166925631396708 0.0
0.6458785458483771 0.6946878992565794 0.0
0.7733575582969163 0.8941098392103913 0.0
0.4457537579383052 0.5273353624588528 0.0
0.163830623786951 0.3903175742448083 0.0
0.6095823984734953 0.8256600013628639 0.0
0.2618074352614998 0.5435604438425528 0.0
0.6287880420949764 0.5875838132975476 0.0
0.3100402147222924 0.4835410260423071 0.0
0.5422177893302824 0.5343158927797464 0.0
0.9964262112680041 0.8213447667248638 0.0
0.4971609598823845 0.6906859160718212 0.0
0.5740517260168769 0.633982031239429 0.0
0.7423299505107201 0.7218768583704394 0.0
0.767147744476665 0.819658485932403 0.0
0.9427329070375209 0.7774595780066723 0.0
0.8375285793481674 0.8869398470561132 0.0
0.2879426409425497 0.5872676364411625 0.0
0.6797562629663748 0.8647676397847667 0.0
1.171674168522591 0.6949964056806914 0.0
0.5261010885606964 0.6055079299963303 0.0
0.7081534744446967 0.8078672678314597 0.0
0.9681672688626206 0.705385299758921 0.0
0.7364069054947873 0.6432919177737106 0.0
0.363826821075015 0.5678764295233764 0.0
0.826170216989844 0.6605791783255148 0.0
0.1284439337099834 0.3602715082199688 0.0
0.518140828090112 0.783905985497134 0.0
0.8452908336054504 0.8167586152211004 0.0
0.2015204468558833 0.492088055688788 0.0
0.4005883523205732 0.7121294304856254 0.0
0.3551392316798573 0.4864133323669936 0.0
0.2501727034998737 0.4443035857235296 0.0
0.857938396055507 0.7390317828783199 0.0
0.9245301815433076 0.8668102132501951 0.0
0.5702050292970205 0.7323438487067678 0.0
1.111607633075016 0.759318252473435 0.0
0.6317193755596126 0.7853891653733797 0.0
0.7921381265818805 0.7497379312370454 0.0
1.088942426366261 0.7015435214091311 0.0
0.5818207607488639 0.5352340257544296 0.0
0.4203532416309484 0.6369649631143086 0.0
0.4854818714173937 0.5131439318707094 0.0
0.4475429831528036 0.5690430472086269 0.0
0.8968753306595262 0.8225547516037004 0.0
0.6339557898063448 0.8543470494763272 0.0
0.3416564411796998 0.6516449771136894 0.0
1.082970576264455 0.7856036465430698 0.0
0.2255204648032354 0.5229464838393291 0.0
0.7335043541589261 0.9012744999286941 0.0
0.9097052989734319 0.6921177492721042 0.0
0.5363428275528405 0.6992389299864537 0.0
0.9657777897300287 0.8588269742066746 0.0
1.025947476617909 0.7556651119714124 0.0
0.1090829970454354 0.3226173037985549 0.0
0.4836644525169279 0.7663103281018557 0.0
0.6910856326166581 0.777867529208468 0.0
0.6694391877434097 0.5946719355048008 0.0
0.2954883530575775 0.4501042133334518 0.0
0.6746032498128595 0.6643957640016517 0.0
1.054636636429828 0.6974583960183274 0.0
0.8939255235163368 0.7470597914537064 0.0
0.3749741568555516 0.6190655430398917 0.0
1.204101441114554 0.6801433534918062 0.0
0.6130053345415899 0.6785345531932346 0.0
0.7679719108452487 0.8562682874000032 0.0
0.9710820219997449 0.8008372590855476 0.0
0.1608022352294362 0.4242591696906621 0.0
0.2865399820604418 0.5141369963640697 0.0
0.1962258775846918 0.4008383427744516 0.0
0.6210920174972845 0.5516143721732873 0.0
0.4843009180093644 0.6583977883024127 0.0
0.5695029195102991 0.8267073580550881 0.0
0.9562891163300477 0.7436031251145003 0.0
0.4174190173896447 0.5044019081507806 0.0
0.410860431802698 0.5535781448116232 0.0
0.8709320861791604 0.9002602580953145 0.0
0.427354757192076 0.7399041791280969 0.0
0.7107884943357746 0.7172753954970394 0.0
1.030382288537246 0.8267335242583146 0.0
0.7737440530215844 0.7115751739064536 0.0
0.8042035044852396 0.9123190309183211 0.0
0.0480920891272324 0.2181807374272496 0.0
0.3695079235280397 0.6886893012630373 0.0
0.773516204411121 0.7830673827025234 0.0
0.302776671534508 0.6210168062901616 0.0
0.7150573728414059 0.6149413270404035 0.0
0.5863276441271683 0.769748656022605 0.0
1.143752049005473 0.6780480059671409 0.0
0.6477132714923303 0.7318578097016951 0.0
0.8380052680878572 0.8531154611905379 0.0
0.5966224054445893 0.6051703156405629 0.0
0.3207240819522855 0.5772784374275386 0.0
0.3520131451607586 0.5263918604440553 0.0
0.8573528491808811 0.6709738722470224 0.0
0.1797236573643203 0.460867988842514 0.0
0.5540828191547277 0.6661566975721369 0.0
1.158039843450239 0.7357536542887966 0.0
0.08638006908591334 0.286237566592474 0.0
0.790861820497242 0.6466611559014377 0.0
0.5362079962218838 0.8121454698907893 0.0
0.9405172130232713 0.6862060282668497 0.0
0.6039359324506977 0.711463595189489 0.0
0.4440093493753478 0.6096873538428137 0.0
0.5500746279087338 0.7620941994763282 0.0
0.2578504496023611 0.5739900063885278 0.0
0.502526452350101 0.6209820553182169 0.0
0.6799833858912959 0.7033681517905728 0.0
0.7183487148906835 0.7518430858176317 0.0
0.8006701240044786 0.8118713608014352 0.0
0.1304684854221093 0.3934039266496895 0.0
1.00789495394612 0.7937868725857601 0.0
0.696960396255943 0.893370944718147 0.0
0.8258315165019564 0.7538365084989149 0.0
0.8462950259502577 0.775614153529746 0.0
0.4082018839227037 0.6749460331934272 0.0
0.7025889307788081 0.8378536687159448 0.0
0.4666676520109517 0.6984557076050861 0.0
[...]
POINT_DATA 531

VECTORS Velocity float
0.0000000000000000 1.0000000000000000 0.0
0.0000000000000000 1.0000000000000000 0.0
2.6391683908886163 -0.9576595980401809 0.0
2.0398103566387626 1.0595645856294176 0.0
0.0000000000000000 1.0000000000000000 0.0
0.0000000000000000 1.0000000000000000 0.0
0.0000000000000000 1.0000000000000000 0.0
0.0000000000000000 1.0000000000000000 0.0
0.0000000000000000 1.0000000000000000 0.0
0.0000000000000000 1.0000000000000000 0.0
0.0000000000000000 1.0000000000000000 0.0
0.0000000000000000 1.0000000000000000 0.0
0.0000000000000000 1.0000000000000000 0.0
0.0000000000000000 1.0000000000000000 0.0
0.0000000000000000 1.0000000000000000 0.0
0.0000000000000000 1.0000000000000000 0.0
0.0000000000000000 1.0000000000000000 0.0
0.0000000000000000 1.0000000000000000 0.0
0.0000000000000000 1.0000000000000000 0.0
0.0000000000000000 1.0000000000000000 0.0
0.0000000000000000 0.0000000000000000 0.0
0.0000000000000000 0.0000000000000000 0.0
0.0000000000000000 0.0000000000000000 0.0
0.0000000000000000 0.0000000000000000 0.0
0.0000000000000000 0.0000000000000000 0.0
0.0000000000000000 0.0000000000000000 0.0
0.0000000000000000 0.0000000000000000 0.0
0.0000000000000000 0.0000000000000000 0.0
0.0000000000000000 0.0000000000000000 0.0
0.0000000000000000 0.0000000000000000 0.0
0.0000000000000000 0.0000000000000000 0.0
0.0000000000000000 0.0000000000000000 0.0
0.0000000000000000 0.0000000000000000 0.0
0.0000000000000000 0.0000000000000000 0.0
0.0000000000000000 0.0000000000000000 0.0
0.0000000000000000 0.0000000000000000 0.0
0.0000000000000000 0.0000000000000000 0.0
0.0000000000000000 0.0000000000000000 0.0
0.0000000000000000 0.0000000000000000 0.0
2.6794724648958068 -1.7987195489417120 0.0
3.6700204547929913 -2.3127844059139462 0.0
3.7159066632763516 -2.1931716660288370 0.0
3.6471113002881039 -1.8070874012269291 0.0
3.4718657520862650 -1.3915500656339852 0.0
3.4122683988469737 -1.0303504494447313 0.0
3.4083593450625234 -0.7751092775791962 0.0
3.3745243779990064 -0.5602161516098070 0.0
3.3038057284633240 -0.2862200296763192 0.0
3.2954512625348578 -0.0812119193110762 0.0
3.2484730897728511 0.1217945559943181 0.0
3.1589315036183696 0.3169663866129594 0.0
3.1086469248609228 0.4816673440724769 0.0
2.9834346169428287 0.6372533239968227 0.0
2.6725317972040270 0.9918302337301342 0.0
2.1605918571481104 0.8967759617342330 0.0
0.0000000000000000 0.0000000000000000 0.0
0.0000000000000000 0.0000000000000000 0.0
0.0000000000000000 0.0000000000000000 0.0
0.0000000000000000 0.0000000000000000 0.0
0.0000000000000000 0.0000000000000000 0.0
0.0000000000000000 0.0000000000000000 0.0
0.0000000000000000 0.0000000000000000 0.0
0.0000000000000000 0.0000000000000000 0.0
0.0000000000000000 0.0000000000000000 0.0
0.0000000000000000 0.0000000000000000 0.0
0.0000000000000000 0.0000000000000000 0.0
0.0000000000000000 0.0000000000000000 0.0
0.0000000000000000 0.0000000000000000 0.0
0.0000000000000000 0.0000000000000000 0.0
0.0000000000000000 0.0000000000000000 0.0
0.0000000000000000 0.0000000000000000 0.0
0.0000000000000000 0.0000000000000000 0.0
0.0000000000000000 0.0000000000000000 0.0
0.0000000000000000 0.0000000000000000 0.0
0.0000000000000000 0.0000000000000000 0.0
0.0000000000000000 0.0000000000000000 0.0
0.0000000000000000 0.0000000000000000 0.0
0.0000000000000000 0.0000000000000000 0.0
0.0000000000000000 0.0000000000000000 0.0
0.0000000000000000 0.0000000000000000 0.0
0.0000000000000000 0.0000000000000000 0.0
0.0000000000000000 0.0000000000000000 0.0
0.0000000000000000 0.0000000000000000 0.0
3.2456762221178383 2.2465927871298397 0.0
3.5879256403499231 1.5932348007090522 0.0
3.5607568305590203 0.9123223501731222 0.0
3.4661938980621723 1.9876859998807577 0.0
3.4059460981342813 2.7319727388368200 0.0
3.6086390932743360 0.1973731299314430 0.0
3.7223211849100148 3.3912325566510253 0.0
3.3472138796329336 2.2617487611712010 0.0
3.3679089785338983 1.4142227080678429 0.0
3.5759849502524097 1.7405066289876379 0.0
3.1696657597329354 2.0829833989473348 0.0
3.6359974254618490 1.2565591681291068 0.0
3.4594469074554142 1.7458464596504160 0.0
3.1479320710420300 2.4773215695416400 0.0
3.2052738789363429 2.2567489798533731 0.0
3.4259410507916326 -0.3514044037374334 0.0
3.5269043126840414 3.9187225310594354 0.0
2.7915811716624601 2.2022816633084035 0.0
3.3924792238096995 1.4790673784187705 0.0
3.4157889226430780 0.4913262173420141 0.0
3.1834220942423821 0.4873471193857450 0.0
3.2493290000524206 0.9114074412030549 0.0
2.8953716791991613 2.8165625705611412 0.0
3.4770865389971903 4.5968274486660361 0.0
3.5016679510594404 2.5290519769521862 0.0
2.8586634503855670 1.6988790221285797 0.0
3.6017265009416710 1.8304304389128223 0.0
3.3632810574457332 2.1841749107186872 0.0
3.1969827401270252 -0.7453976777947098 0.0
3.5329305242248776 1.3061565746918922 0.0
2.6930736586930468 2.3827537519152360 0.0
3.0663317731662443 1.1746793763015435 0.0
3.2437685435156780 2.3858977857852190 0.0
3.0936409914976108 1.6425913015553404 0.0
3.5058591922701048 -0.1509721432979451 0.0
2.5589573077046608 1.7996248588709927 0.0
3.0700944658071787 0.7706038263073219 0.0
2.8707839200089826 0.1243869703193047 0.0
3.5064121099763925 2.0482923702018807 0.0
3.0049779920808790 1.7595820580842931 0.0
2.9318228310680419 2.3212211624893846 0.0
2.9369122151658691 4.7356867239962632 0.0
2.9354531869870493 1.5342458753242521 0.0
2.5588047742319602 3.0605927225107239 0.0
2.6252588418079950 1.9816405529742334 0.0
3.1625512517848513 3.4100056107847148 0.0
2.2791429374101719 1.8636717981172179 0.0
3.4116755152648910 0.1274640793840500 0.0
3.3555043095032411 2.2540028740391476 0.0
3.2425216773901626 2.2343744357930970 0.0
3.6698058297834431 1.5973605109791207 0.0
3.5324104896143287 1.5522589194095262 0.0
3.5683066125392360 0.4612092178398201 0.0
3.0239630168731804 1.2316982430333763 0.0
1.8209421544928432 1.8307786899665059 0.0
2.8709994193039545 1.3891642974650644 0.0
3.0901599173970431 -0.9030436189605391 0.0
3.2100775966908719 2.2645350056053619 0.0
3.5776367607146797 1.7666524553289678 0.0
2.1497558471640263 0.1837150708919132 0.0
2.3950596668836672 1.1731067831301751 0.0
3.5333565381732659 3.0557366725515007 0.0
1.6223735598850819 0.5888000735410754 0.0
1.8313560018496342 3.2599594353312602 0.0
1.9049088130699006 1.1622468439410338 0.0
3.4110160371383631 1.1183094182180511 0.0
1.8325153920458941 2.3126530060400872 0.0
1.4197681748531821 1.0270325818477013 0.0
2.0921098364489801 2.3733093605007904 0.0
2.7296924586483273 3.3719014616742613 0.0
3.6213111723517266 1.0453543348559471 0.0
3.2477940967540335 0.5881068248891491 0.0
3.3823205062959953 2.1838959214826303 0.0
3.5481451162133109 -0.7785037776199181 0.0
3.4469782808636116 1.8066507280819617 0.0
3.6380487955470109 1.3644840593523961 0.0
2.1164456629743684 -0.3470622426318843 0.0
1.8081567619666643 1.6683349539643919 0.0
3.1954551657796393 2.6574064018128603 0.0
1.5631834794453527 1.7914376704812385 0.0
3.3362557131630735 2.4122624546361684 0.0
3.3967705507375325 0.7966348208635952 0.0
1.9214195853017961 1.0105432600245901 0.0
1.5364598220803780 1.5384226826767167 0.0
3.5509830052678368 -0.4440095235872182 0.0
1.8295142755190303 1.9636859703044165 0.0
1.9219364988560292 0.9909798741319680 0.0
1.9525436633951763 0.2377788767631115 0.0
3.4090125780318665 2.2429589280928668 0.0
3.3043854715591987 0.3169878546354882 0.0
3.4810091414264286 -0.0945088858856417 0.0
1.5931160642752704 3.1020458905216972 0.0
1.6084759516320315 1.2992935770032850 0.0
3.6215668742783609 1.7886197840881388 0.0
1.6726936992717474 1.0411612961836094 0.0
1.5142474895209379 2.7562573589797763 0.0
3.5072471183042939 1.9971895793402115 0.0
1.8439988526222129 -0.2564594787564125 0.0
3.5868074008525728 0.8067173783237007 0.0
3.1169634211629855 2.6931415087972042 0.0
2.7445820758356994 -1.2804199486580699 0.0
3.4014938311484362 2.1210002934805612 0.0
3.4377730374814357 1.6984532651562787 0.0
3.4892321492772509 0.2824141680470340 0.0
1.9990706398444975 3.0551295609697746 0.0
3.4424528414899349 3.6408391019750583 0.0
2.4436564678423540 4.0320571390583133 0.0
1.1241712424350310 1.0530414070574783 0.0
3.2569099742737024 2.3423580509899944 0.0
1.4942505821014218 0.7913339325890578 0.0
3.4684538880718234 0.3532143517101473 0.0
2.1795333207539453 2.1324827196476241 0.0
3.4098555468098874 2.5900128999360099 0.0
2.9551531709932783 0.8867802290786728 0.0
1.1779061089924605 0.8796282087304051 0.0
3.6796671088572572 1.7324813283353793 0.0
3.3963259691295553 -0.0749154491291833 0.0
3.6244437382436745 1.4327918963998119 0.0
2.5412496489030167 1.4536924473076420 0.0
0.7641837141947626 3.4574451967849447 0.0
1.2365736363766056 1.1138265383664645 0.0
3.5485290079921907 1.4539438984496822 0.0
1.4437063941113983 1.2000411076244466 0.0
1.5264968653787685 0.6110701100417910 0.0
3.3455881225392994 1.9869709812750094 0.0
1.7324481446719382 -0.3124789891791577 0.0
3.5214365977567694 1.9650143946003089 0.0
3.3304293230239810 1.2199194529093134 0.0
3.1425525167037298 2.2437429041551122 0.0
2.9907204517167099 3.0680037344899240 0.0
3.6936324440510040 3.1247185319909652 0.0
1.4771928184626106 0.4223488014763803 0.0
1.7182179592117413 2.4206104982370422 0.0
3.3048514569960745 2.2171026876524085 0.0
3.5268578998980349 -1.0386214234491578 0.0
1.2131433248152024 3.3076142524977907 0.0
1.5994076283776184 0.6379282534166948 0.0
1.3439809362767281 0.5486121812836547 0.0
1.4440985258632082 0.0865045393983159 0.0
3.4385182873894760 2.0665844222460468 0.0
3.2815543794569084 2.5333527547146577 0.0
3.1084409007371008 1.9272922958227081 0.0
1.1497107829676336 1.6573649723730330 0.0
3.2380693293670069 2.2912152630564733 0.0
3.5906303751508988 1.9602718948461115 0.0
3.6211732770988192 1.6856841901965325 0.0
3.4677428430643706 1.3636503629858929 0.0
1.6348293397914988 2.3194778241452707 0.0
3.5238608868474959 0.0742210091244577 0.0
1.6546186805045819 0.7578002150700774 0.0
3.6010699104597590 1.2365391463497886 0.0
3.5428394770021616 1.1127688686276429 0.0
2.7949361636372516 2.1722679466585997 0.0
3.3540713554658761 1.5335495150308169 0.0
3.1533333635819263 2.2266367650672052 0.0
3.2547711737587588 2.0797755954225678 0.0
3.5535488565431534 1.6084776875151592 0.0
3.5999404038810763 1.8831217589778497 0.0
1.5962649116924534 0.2343041667383974 0.0
3.0098074455945274 2.0747397261073299 0.0
3.1880185273682846 1.0405463233321861 0.0
3.0823414914010954 2.1218416146417058 0.0
3.2075943205668414 0.0623604551936898 0.0
3.4387715848619549 -0.2486779220140397 0.0
1.0086947672432685 1.1004269051542976 0.0
2.3420311879127156 -1.0482976363831102 0.0
3.3260182353910643 2.1911880382554951 0.0
3.1420902211728956 1.6812913887517558 0.0
3.1387022009179248 1.4904114995988069 0.0
3.4367376566565850 4.0256521169024557 0.0
0.7712141931139550 1.6615472277787433 0.0
3.2828959500216714 2.3451329791380706 0.0
1.5715519665672140 1.8380900585562197 0.0
3.2320299567613069 -0.5481686504159826 0.0
3.5449839348820080 0.7079752073395991 0.0
3.2128269847898094 2.2272603671668518 0.0
0.9341618244218355 0.7382791105153391 0.0
1.2161181522860478 2.2316374069445941 0.0
3.1355421530264138 2.8797717011354749 0.0
1.7095019129767535 2.9301606048482940 0.0
1.1639426784842584 1.8952543764742793 0.0
1.1268881019434840 1.6079423831600459 0.0
1.6661083063979145 3.0806473342960539 0.0
1.7479566238283741 1.2826145904555812 0.0
2.1916832719041808 -1.4131264859655914 0.0
2.5747881825739163 2.0264263778209171 0.0
0.9858079303466394 0.4221655370756416 0.0
1.0331408056766778 0.7754965189449912 0.0
3.6929604003996657 3.3536614526465289 0.0
1.6086611229128651 -0.0732242607962360 0.0
3.0548883954004511 0.7245576012672231 0.0
3.3251425703291111 0.1239441686155709 0.0
3.4996911238387876 2.1529283444046388 0.0
1.1251135170937818 3.3291923861573061 0.0
3.3445581410578034 0.7618232654161311 0.0
0.8721689581080009 0.5280062815062532 0.0
3.5672663071753878 -0.1579693342702146 0.0
3.2477167578204416 2.4869956362664047 0.0
1.1703995062140302 -0.0075552993929411 0.0
3.2133575691064813 -0.1366882917056119 0.0
3.2299615787996401 1.7680154009771176 0.0
3.6248715522905433 -1.3981628773879389 0.0
1.2760037577453902 0.1461468591113284 0.0
3.0570116313421556 1.7792033627365269 0.0
3.0594355718814734 2.2210525415601978 0.0
2.6414988330249454 1.9019743190542100 0.0
3.3079754782239483 2.2510718457958308 0.0
3.6329087065809826 1.6784821668673153 0.0
3.1389688228251909 1.1999916503533634 0.0
3.5568870369947172 3.7134757181699114 0.0
3.5759046337961196 1.6142167950529984 0.0
1.2844459524537462 0.7794348375554975 0.0
3.0888526804475256 3.3658173543324303 0.0
3.1731657659596868 1.7024399561973378 0.0
3.5907807420178499 1.6957691048444961 0.0
3.6416081679351953 1.5369401800978304 0.0
3.1506038893916388 2.3122561262718335 0.0
3.2624572656396533 2.2795148520920354 0.0
1.4320081992448177 -0.7637533700121547 0.0
3.5927683725479107 0.6486465627923796 0.0
3.3877636552267676 0.2853924547446814 0.0
1.6704259351548660 4.0676074855018278 0.0
2.6604727857342736 2.1513328067550961 0.0
0.9164117125637153 0.6434322181748851 0.0
3.2726017425338640 2.2335122691215998 0.0
3.5748577928304135 1.6036146827876141 0.0
3.5537160169693913 0.9515956807734627 0.0
3.4116638335941309 1.9530567581952269 0.0
3.4229331518812294 2.6956085450322100 0.0
3.6116075635338700 0.2375260277229737 0.0
3.7377794062992824 3.3632384642132012 0.0
3.4177879925763630 2.3063505636945583 0.0
3.2768950122236569 1.4351589241040958 0.0
3.6731352668648536 1.7984203642084804 0.0
3.0745001716220464 2.0102516686595497 0.0
3.7269023458965091 1.2959843266007585 0.0
3.3529286423362135 1.6974794278716070 0.0
3.0857508955821920 2.4072834852997014 0.0
3.2994079751693328 2.2582588261082162 0.0
3.4326170504462556 -0.3289450576262982 0.0
3.5354429014420470 3.8961470719685969 0.0
2.8948740886905338 2.2440959208094711 0.0
3.2719091302498082 1.4477055784983359 0.0
3.3483986919115631 0.5326044875800879 0.0
3.2671289383392410 0.5181938345180866 0.0
3.1566114468294471 0.9477360799672040 0.0
2.8569982691303082 2.7545710852864147 0.0
3.4824946549787379 4.5916277416974536 0.0
3.5723869820371257 2.5293258074839873 0.0
2.7443016852778306 1.6305564170037761 0.0
3.6022340160164799 1.8351351508793474 0.0
3.3561503317927475 2.1701635453625689 0.0
3.1999367111536987 -0.7395020551099134 0.0
3.5224599123959144 1.3345286926854361 0.0
2.6323074779813016 2.3064767807483628 0.0
3.1869906208273124 1.2232857819879919 0.0
3.2641058984144724 2.3583508016667096 0.0
3.2187168688922259 1.7116443921811555 0.0
3.4729845057306292 -0.1134045702395130 0.0
2.4581943023466519 1.7286324607678636 0.0
3.1817362300875800 0.8021371213530398 0.0
2.9181979709663994 0.1421292254931121 0.0
3.5418156758674804 2.0678288788349910 0.0
2.8927780803496317 1.7509758904744399 0.0
3.0292597928963905 2.3298017710917680 0.0
2.9384187814567366 4.7345522875188388 0.0
2.8193999115291883 1.4768843386059143 0.0
2.5439970963736860 3.0237137699735150 0.0
2.7379535221199176 2.0610630229180598 0.0
3.2022261781057302 3.4209183501278080 0.0
2.3871244929045616 1.8836860503089856 0.0
3.3517479047768681 0.1701664700612106 0.0
3.2942868642063283 2.1971460868944792 0.0
3.2967761230335033 2.2479528650532843 0.0
3.7305644770890778 1.6261936398720718 0.0
3.4658685776211677 1.5597690185944162 0.0
3.5556399660553617 0.4992024265123601 0.0
2.9343948044980599 1.2495096037207933 0.0
1.7900238679224578 1.7932270708550726 0.0
2.7542388159704250 1.3358068892696173 0.0
3.0918360296102496 -0.8967200933684800 0.0
3.2698746779329988 2.2715996697461311 0.0
3.5029266138880364 1.7397983482518962 0.0
2.2192821362508712 0.2061684484722041 0.0
2.5052319091163033 1.2234614314840955 0.0
3.5488060548145084 3.0219476985878155 0.0
1.7141335105717723 0.6209689605818941 0.0
1.8318542939236475 3.2593203150149122 0.0
1.8174637371442757 1.1032028255604824 0.0
3.3523157189862611 1.1536598343180660 0.0
1.8270305155989899 2.2973729366848987 0.0
1.3555430575386409 0.9730367310767007 0.0
2.1447888560357429 2.3813197828295847 0.0
2.7501940233143785 3.3721536796718703 0.0
3.6897264317526219 1.0844663119544768 0.0
3.1752537864769925 0.6214067304395097 0.0
3.3224219371368533 2.1344005798775116 0.0
3.5383018318339556 -0.7649358488851373 0.0
3.3504740198459362 1.7592187431777879 0.0
3.6741588949240538 1.3918564274541856 0.0
2.1329531819226624 -0.3421721134043733 0.0
1.8962758025399229 1.7077891408371835 0.0
3.1651840108730673 2.5957146269697002 0.0
1.6479725109087728 1.8013303179991100 0.0
3.4059525606097210 2.3979545715612516 0.0
3.3269742506497622 0.8430561929388298 0.0
1.8263168110035508 0.9636843370634595 0.0
1.4910459332904311 1.4833674170545792 0.0
3.5335542823033559 -0.4194735276353754 0.0
1.8198842200695788 1.9400798268800230 0.0
1.8369483458869613 0.9711100365945905 0.0
2.0369145737273420 0.2588788407056431 0.0
3.3599946977625095 2.1994339198229902 0.0
3.2490142386625442 0.3465726611257333 0.0
3.4903527250131194 -0.0556964987094625 0.0
1.5931568875802857 3.1021015312244660 0.0
1.5253439516061058 1.2335073702712431 0.0
3.5687845122037114 1.7722603732128832 0.0
1.7706268831174590 1.1001568109261373 0.0
1.5410068362090183 2.7667732543791725 0.0
3.5978846422364539 2.0474668081213356 0.0
1.8743302293651565 -0.2480261677234692 0.0
3.6298714734121602 0.8471680904053390 0.0
3.0837820531491298 2.6212319707459382 0.0
2.7448356507375897 -1.2788349910182484 0.0
3.4337144253095668 2.1340667549541639 0.0
3.3313374110773259 1.6921338036867406 0.0
3.4478530699663366 0.3203023820734271 0.0
1.9994689333929820 3.0505648409169130 0.0
3.4575088534779437 3.6219914711446104 0.0
2.4480059387921487 4.0319288918989651 0.0
1.1941581869043947 1.1132733629839722 0.0
3.2367188361286039 2.2987834237374534 0.0
1.4091104953362605 0.7466239703257721 0.0
3.5198241685341309 0.3871685947681967 0.0
2.2532963545498115 2.1423355071618313 0.0
3.4822637439580717 2.5789288601295155 0.0
2.8855936432712315 0.9136856990297443 0.0
1.1140209326915089 0.8302123868394691 0.0
3.7310244305038571 1.7650514758750036 0.0
3.3555369024156301 -0.0470633111728515 0.0
3.7123178497270501 1.4723182287593386 0.0
2.4673806347187388 1.4584615762295199 0.0
0.7641837141947628 3.4574451967849456 0.0
1.1832756521307011 1.0615276279482406 0.0
3.5304587623925694 1.4710897035451074 0.0
1.4100101624132091 1.1594339156345832 0.0
1.6233238688364038 0.6549387895995300 0.0
3.2494337780386151 1.9295059566513697 0.0
1.7411336381999309 -0.3121355621252611 0.0
3.5169710452965517 1.9643260463504475 0.0
3.2280620993341067 1.2531113714467201 0.0
3.2382648266263261 2.2957558034575820 0.0
2.9610446244411133 3.0160716211218110 0.0
3.7506341497025693 3.1228928945135386 0.0
1.5631803837901426 0.4463151332716637 0.0
1.7156890532045876 2.4120744087750698 0.0
3.3133598815759089 2.2052276626335359 0.0
3.5222598326306214 -1.0295192119435153 0.0
1.2130799005170363 3.3076285327509320 0.0
1.6918766726721040 0.6762995167604746 0.0
1.2603925387977319 0.5097561827452863 0.0
1.5179507166529482 0.0988919099527195 0.0
3.4290420797561487 2.0499187970860135 0.0
3.3051062184388811 2.4989695483336458 0.0
3.0084926131944631 1.8578014970968082 0.0
1.1281290559355466 1.6222734573788391 0.0
3.2671291812852803 2.2721346323539482 0.0
3.6361072285577403 1.9873246648290905 0.0
3.6280461708991494 1.6968919711467816 0.0
3.4148432398390320 1.3830659100359055 0.0
1.6352083848533006 2.3175831081244032 0.0
3.4879119141494752 0.1212501239372457 0.0
1.5715735835335438 0.7269589180938498 0.0
3.6357362750639473 1.2684114730138722 0.0
3.5445232626903502 1.1502638355081529 0.0
2.7233004448601266 2.0946525284101085 0.0
3.2444217416791408 1.4981069731438976 0.0
3.0798005130438675 2.1591130796992566 0.0
3.3697257326294050 2.1485014415445050 0.0
3.6622293866873550 1.6519815817469790 0.0
3.5414712207666823 1.8630670232627022 0.0
1.6507461591835664 0.2474138705204495 0.0
3.1140217779186576 2.0915158255478254 0.0
3.3082128671137534 1.0868357127035642 0.0
2.9889999716497599 2.0581208967584761 0.0
3.2619390303601721 0.0909731260277966 0.0
3.4126894370798126 -0.2278811182256162 0.0
0.9939674378869700 1.0765249353200548 0.0
2.3421381375113541 -1.0484313493919926 0.0
3.3636427542794323 2.2042254770722871 0.0