# vtk DataFile Version 3.0
LucasCarvalhoTCC Results
ASCII

DATASET POLYDATA
FIELD FieldData 1
TIME 1 1 double
1.1

POINTS 531 float
0.02430399999999999 0.16425 0.0
0.5913384 0.481878 0.0
1.30475 0.591832 0.0
0.774126 0.951272 0.0
0.04779564148251592 0.1966194329439859 0.0
0.0726092153537953 0.2279866320496896 0.0
0.09876577335895967 0.2582426022760065 0.0
0.1262817198684718 0.2872673048853742 0.0
0.1551671626852806 0.3149288071400502 0.0
0.1854238368919928 0.3410826624766006 0.0
0.2170424591499632 0.3655716640299072 0.0
0.2499995164635996 0.3882263409476824 0.0
0.2842534387828506 0.4088665906889567 0.0
0.3197403359862048 0.4273050841371062 0.0
0.3563695945475563 0.4433531534921038 0.0
0.3940201673622058 0.4568300511916809 0.0
0.4325386107291805 0.4675762214989666 0.0
0.4717406913237268 0.4754709112408955 0.0
0.5114182513144845 0.480453442081874 0.0
0.5513531678859215 0.4825464217651069 0.0
0.6182637923774223 0.5096055604109244 0.0
0.647389101376845 0.5350126187545199 0.0
0.6784752958296183 0.5579802184492302 0.0
0.7112421079139344 0.5784810076698811 0.0
0.7454110434104482 0.5965507527581431 0.0
0.7807301979183381 0.6122562812860965 0.0
0.8169827939052532 0.6256694297140926 0.0
0.853985522124928 0.6368498290413532 0.0
0.8915818964261243 0.6458353363890481 0.0
0.9296339776508085 0.6526379336565091 0.0
0.9680139759519513 0.6572432424840469 0.0
1.006596418266983 0.659612648128084 0.0
1.045251165872634 0.6596877658251245 0.0
1.083837680945672 0.657397570658483 0.0
1.122201320191055 0.6526688455666412 0.0
1.160173053543044 0.6454405726452737 0.0
1.197574286953346 0.6356824063786186 0.0
1.23422961949795 0.6234159704281613 0.0
1.26998758503999 0.6087366500005643 0.0
1.285086682927543 0.6256533177085738 0.0
1.263669745906668 0.6583917156018083 0.0
1.240480125919214 0.6898988493917133 0.0
1.215532715641304 0.7200329197235763 0.0
1.188869833862339 0.7486599839005789 0.0
1.160556835593143 0.7756559317113654 0.0
1.130680194163798 0.8009104211039757 0.0
1.099347083827048 0.8243335727704395 0.0
1.066684425336412 0.8458643604021228 0.0
1.03283497048792 0.8654772531176074 0.0
0.9979492572630678 0.8831824104874066 0.0
0.9621749986495024 0.8990166556695112 0.0
0.9256475378616493 0.9130272060048579 0.0
0.8884846540507749 0.9252538945090274 0.0
0.8507866567183312 0.935715378288671 0.0
0.8126405010322847 0.9444016349017643 0.0
0.7365055179612304 0.9396161853607135 0.0
0.699310855231089 0.9266666891603924 0.0
0.6626179171945521 0.9123577070090924 0.0
0.6264901449910028 0.8966765244755546 0.0
0.5909789825447118 0.8796450886595113 0.0
0.556124897941028 0.8613059841617771 0.0
0.5219601957009091 0.8417124664434518 0.0
0.4885110616878257 0.8209207172498462 0.0
0.4558007060429968 0.7989848675704875 0.0
0.4238520247653796 0.775953675763176 0.0
0.3926900138417566 0.7518687036338616 0.0
0.3623437622133722 0.7267636709390595 0.0
0.3328479550295906 0.7006647540504483 0.0
0.3042438201183181 0.6735915983461908 0.0
0.2765795358619001 0.6455588748284606 0.0
0.2499101143933102 0.6165781952942546 0.0
0.2242967982692083 0.5866601984136335 0.0
0.1998060807431611 0.5558166834807132 0.0
0.1765083808984156 0.5240625786010467 0.0
0.154476512720734 0.491417660368959 0.0
0.133784033184808 0.457907916333494 0.0
0.114503564227142 0.4235664945146766 0.0
0.09670517293008124 0.3884342245925089 0.0
0.0804548910754031 0.3525597611689231 0.0
0.06581337946329963 0.3159993090744527 0.0
0.05283482490365372 0.2788161107032479 0.0
0.0415660226296666 0.2410796291505872 0.0
0.03204569406625649 0.2028646095712164 0.0
0.5272009874003867 0.6419624505772817 0.0
0.7421848286576707 0.7716726266421574 0.0
0.8789503364783713 0.7829234141383637 0.0
0.6149390992905563 0.7449438030688011 0.0
0.4064556042659638 0.5942834991165423 0.0
0.9875021850865396 0.7666507358101158 0.0
0.3188065960661005 0.539594034984892 0.0
0.61365100263957 0.6399487878797632 0.0
0.8049090660915541 0.8464379870891131 0.0
0.7099820328572021 0.6828840522539854 0.0
0.5239467234991928 0.7406922291088611 0.0
0.8154056325591208 0.7211774015928547 0.0
0.6676178829014909 0.8152713180209475 0.0
0.4416080359619968 0.674360953773491 0.0
0.489443615375965 0.5654986742123573 0.0
1.076665773779852 0.7387182918829318 0.0
0.250390543112057 0.4877450112830265 0.0
0.5736819937919005 0.5790366884881447 0.0
0.7263706755366466 0.8615301097563091 0.0
0.940143307772686 0.8233944909985552 0.0
0.927065543677544 0.7236459161626674 0.0
0.8744389806957806 0.8609114380468947 0.0
0.336888362650554 0.6081958070931937 0.0
0.2030757334857187 0.4383942902513459 0.0
0.3861483329720647 0.5255533415902591 0.0
0.5621001921466506 0.7923778419149285 0.0
0.6822897332295245 0.7428043323059399 0.0
0.5764061681675353 0.6881266532454204 0.0
1.129195449682892 0.7163224153578123 0.0
0.8157794419559141 0.7831214907157077 0.0
0.3806644703311284 0.6554275822782399 0.0
0.7695737871052837 0.669593045341503 0.0
0.4699375460410929 0.6217118815516158 0.0
0.6830867370872363 0.630350317562806 0.0
1.040416897214502 0.7929392348941093 0.0
0.4604428393605979 0.7321209818568342 0.0
0.8729552856459739 0.7015083313474691 0.0
1.017010765275644 0.7166925631396708 0.0
0.6458785458483771 0.6946878992565794 0.0
0.7733575582969163 0.8941098392103913 0.0
0.4457537579383052 0.5273353624588528 0.0
0.163830623786951 0.3903175742448083 0.0
0.6095823984734953 0.8256600013628639 0.0
0.2618074352614998 0.5435604438425528 0.0
0.6287880420949764 0.5875838132975476 0.0
0.3100402147222924 0.4835410260423071 0.0
0.5422177893302824 0.5343158927797464 0.0
0.9964262112680041 0.8213447667248638 0.0
0.4971609598823845 0.6906859160718212 0.0
0.5740517260168769 0.633982031239429 0.0
0.7423299505107201 0.7218768583704394 0.0
0.767147744476665 0.819658485932403 0.0
0.9427329070375209 0.7774595780066723 0.0
0.8375285793481674 0.8869398470561132 0.0
0.2879426409425497 0.5872676364411625 0.0
0.6797562629663748 0.8647676397847667 0.0
1.171674168522591 0.6949964056806914 0.0
0.5261010885606964 0.6055079299963303 0.0
0.7081534744446967 0.8078672678314597 0.0
0.9681672688626206 0.705385299758921 0.0
0.7364069054947873 0.6432919177737106 0.0
0.363826821075015 0.5678764295233764 0.0
0.826170216989844 0.6605791783255148 0.0
0.1284439337099834 0.3602715082199688 0.0
0.518140828090112 0.783905985497134 0.0
0.8452908336054504 0.8167586152211004 0.0
0.2015204468558833 0.492088055688788 0.0
0.4005883523205732 0.7121294304856254 0.0
0.3551392316798573 0.4864133323669936 0.0
0.2501727034998737 0.4443035857235296 0.0
0.857938396055507 0.7390317828783199 0.0
0.9245301815433076 0.8668102132501951 0.0
0.5702050292970205 0.7323438487067678 0.0
1.111607633075016 0.759318252473435 0.0
0.6317193755596126 0.7853891653733797 0.0
0.7921381265818805 0.7497379312370454 0.0
1.088942426366261 0.7015435214091311 0.0
0.5818207607488639 0.5352340257544296 0.0
0.4203532416309484 0.6369649631143086 0.0
0.4854818714173937 0.5131439318707094 0.0
0.4475429831528036 0.5690430472086269 0.0
0.8968753306595262 0.8225547516037004 0.0
0.6339557898063448 0.8543470494763272 0.0
0.3416564411796998 0.6516449771136894 0.0
1.082970576264455 0.7856036465430698 0.0
0.2255204648032354 0.5229464838393291 0.0
0.7335043541589261 0.9012744999286941 0.0
0.9097052989734319 0.6921177492721042 0.0
0.5363428275528405 0.6992389299864537 0.0
0.9657777897300287 0.8588269742066746 0.0
1.025947476617909 0.7556651119714124 0.0
0.1090829970454354 0.3226173037985549 0.0
0.4836644525169279 0.7663103281018557 0.0
0.6910856326166581 0.777867529208468 0.0
0.6694391877434097 0.5946719355048008 0.0
0.2954883530575775 0.4501042133334518 0.0
0.6746032498128595 0.6643957640016517 0.0
1.054636636429828 0.6974583960183274 0.0
0.8939255235163368 0.7470597914537064 0.0
0.3749741568555516 0.6190655430398917 0.0
1.204101441114554 0.6801433534918062 0.0
0.6130053345415899 0.6785345531932346 0.0
0.7679719108452487 0.8562682874000032 0.0
0.9710820219997449 0.8008372590855476 0.0
0.1608022352294362 0.4242591696906621 0.0
0.2865399820604418 0.5141369963640697 0.0
0.1962258775846918 0.4008383427744516 0.0
0.6210920174972845 0.5516143721732873 0.0
0.4843009180093644 0.6583977883024127 0.0
0.5695029195102991 0.8267073580550881 0.0
0.9562891163300477 0.7436031251145003 0.0
0.4174190173896447 0.5044019081507806 0.0
0.410860431802698 0.5535781448116232 0.0
0.8709320861791604 0.9002602580953145 0.0
0.427354757192076 0.7399041791280969 0.0
0.7107884943357746 0.7172753954970394 0.0
1.030382288537246 0.8267335242583146 0.0
0.7737440530215844 0.7115751739064536 0.0
0.8042035044852396 0.9123190309183211 0.0
0.0480920891272324 0.2181807374272496 0.0
0.3695079235280397 0.6886893012630373 0.0
0.773516204411121 0.7830673827025234 0.0
0.302776671534508 0.6210168062901616 0.0
0.7150573728414059 0.6149413270404035 0.0
0.5863276441271683 0.769748656022605 0.0
1.143752049005473 0.6780480059671409 0.0
0.6477132714923303 0.7318578097016951 0.0
0.8380052680878572 0.8531154611905379 0.0
0.5966224054445893 0.6051703156405629 0.0
0.3207240819522855 0.5772784374275386 0.0
0.3520131451607586 0.5263918604440553 0.0
0.8573528491808811 0.6709738722470224 0.0
0.1797236573643203 0.460867988842514 0.0
0.5540828191547277 0.6661566975721369 0.0
1.158039843450239 0.7357536542887966 0.0
0.08638006908591334 0.286237566592474 0.0
0.790861820497242 0.6466611559014377 0.0
0.5362079962218838 0.8121454698907893 0.0
0.9405172130232713 0.6862060282668497 0.0
0.6039359324506977 0.711463595189489 0.0
0.4440093493753478 0.6096873538428137 0.0
0.5500746279087338 0.7620941994763282 0.0
0.2578504496023611 0.5739900063885278 0.0
0.502526452350101 0.6209820553182169 0.0
0.6799833858912959 0.7033681517905728 0.0
0.7183487148906835 0.7518430858176317 0.0
0.8006701240044786 0.8118713608014352 0.0
0.1304684854221093 0.3934039266496895 0.0
1.00789495394612 0.7937868725857601 0.0
0.696960396255943 0.893370944718147 0.0
0.8258315165019564 0.7538365084989149 0.0
0.8462950259502577 0.775614153529746 0.0
0.4082018839227037 0.6749460331934272 0.0
0.7025889307788081 0.8378536687159448 0.0
0.4666676520109517 0.6984557076050861 0.0
[...]
POINT_DATA 531

VECTORS Velocity float
0.0000000000000000 1.0000000000000000 0.0
0.0000000000000000 1.0000000000000000 0.0
2.6385988028437493 -0.9585585288351468 0.0
1.9629458746411457 1.0497334528223141 0.0
0.0000000000000000 1.0000000000000000 0.0
0.0000000000000000 1.0000000000000000 0.0
0.0000000000000000 1.0000000000000000 0.0
0.0000000000000000 1.0000000000000000 0.0
0.0000000000000000 1.0000000000000000 0.0
0.0000000000000000 1.0000000000000000 0.0
0.0000000000000000 1.0000000000000000 0.0
0.0000000000000000 1.0000000000000000 0.0
0.0000000000000000 1.0000000000000000 0.0
0.0000000000000000 1.0000000000000000 0.0
0.0000000000000000 1.0000000000000000 0.0
0.0000000000000000 1.0000000000000000 0.0
0.0000000000000000 1.0000000000000000 0.0
0.0000000000000000 1.0000000000000000 0.0
0.0000000000000000 1.0000000000000000 0.0
0.0000000000000000 1.0000000000000000 0.0
0.0000000000000000 0.0000000000000000 0.0
0.0000000000000000 0.0000000000000000 0.0
0.0000000000000000 0.0000000000000000 0.0
0.0000000000000000 0.0000000000000000 0.0
0.0000000000000000 0.0000000000000000 0.0
0.0000000000000000 0.0000000000000000 0.0
0.0000000000000000 0.0000000000000000 0.0
0.0000000000000000 0.0000000000000000 0.0
0.0000000000000000 0.0000000000000000 0.0
0.0000000000000000 0.0000000000000000 0.0
0.0000000000000000 0.0000000000000000 0.0
0.0000000000000000 0.0000000000000000 0.0
0.0000000000000000 0.0000000000000000 0.0
0.0000000000000000 0.0000000000000000 0.0
0.0000000000000000 0.0000000000000000 0.0
0.0000000000000000 0.0000000000000000 0.0
0.0000000000000000 0.0000000000000000 0.0
0.0000000000000000 0.0000000000000000 0.0
0.0000000000000000 0.0000000000000000 0.0
2.6789063524046588 -1.7965072755095610 0.0
3.6717675715705815 -2.3097483081443633 0.0
3.7384958259314676 -2.2142178405279269 0.0
3.6990940950496620 -1.8803943406474022 0.0
3.6093481586069971 -1.5262129787026042 0.0
3.5708758535317808 -1.1546157030229740 0.0
3.5536034137379313 -0.9023245984663820 0.0
3.5267111707234777 -0.6632444315693865 0.0
3.4237377503020645 -0.3605278673706019 0.0
3.4015500502898703 -0.1404838818940072 0.0
3.3386006852538039 0.0781328545823599 0.0
3.2275758873143783 0.2879690556228409 0.0
3.1582944086659812 0.4618591555465080 0.0
3.0012870031721470 0.6266412013269044 0.0
2.6323873503804398 1.0199349992715903 0.0
2.0463576296155663 0.9123501264054572 0.0
0.0000000000000000 0.0000000000000000 0.0
0.0000000000000000 0.0000000000000000 0.0
0.0000000000000000 0.0000000000000000 0.0
0.0000000000000000 0.0000000000000000 0.0
0.0000000000000000 0.0000000000000000 0.0
0.0000000000000000 0.0000000000000000 0.0
0.0000000000000000 0.0000000000000000 0.0
0.0000000000000000 0.0000000000000000 0.0
0.0000000000000000 0.0000000000000000 0.0
0.0000000000000000 0.0000000000000000 0.0
0.0000000000000000 0.0000000000000000 0.0
0.0000000000000000 0.0000000000000000 0.0
0.0000000000000000 0.0000000000000000 0.0
0.0000000000000000 0.0000000000000000 0.0
0.0000000000000000 0.0000000000000000 0.0
0.0000000000000000 0.0000000000000000 0.0
0.0000000000000000 0.0000000000000000 0.0
0.0000000000000000 0.0000000000000000 0.0
0.0000000000000000 0.0000000000000000 0.0
0.0000000000000000 0.0000000000000000 0.0
0.0000000000000000 0.0000000000000000 0.0
0.0000000000000000 0.0000000000000000 0.0
0.0000000000000000 0.0000000000000000 0.0
0.0000000000000000 0.0000000000000000 0.0
0.0000000000000000 0.0000000000000000 0.0
0.0000000000000000 0.0000000000000000 0.0
0.0000000000000000 0.0000000000000000 0.0
0.0000000000000000 0.0000000000000000 0.0
3.3966532139080217 2.3288150146997699 0.0
3.7341317766253139 1.6825027932544472 0.0
3.6744164027196606 0.9572270440168893 0.0
3.5864790401026601 2.0588273098183247 0.0
3.5502953131521071 2.8081690400496431 0.0
3.6474587456579446 0.1869467274074085 0.0
3.8264292490810528 3.4609227446092308 0.0
3.4471739952647686 2.3247712434788808 0.0
3.4498824418544589 1.5023625722169016 0.0
3.5825039966267633 1.7281865927484219 0.0
3.1112133292866395 2.0414397078174531 0.0
3.6263830016087515 1.2805705429786800 0.0
3.4374844603010999 1.7394044569709755 0.0
3.1730718305126890 2.4794156796808258 0.0
3.2428571050553683 2.3014295303437180 0.0
3.3509596999230471 -0.3656683129930921 0.0
3.5665567576799160 3.9043044104193174 0.0
2.7307551005510113 2.1926396396502708 0.0
3.2917239703503176 1.4687148557779228 0.0
3.5119433548019043 0.5014874524409964 0.0
3.0299290216107888 0.4583722235464983 0.0
3.3079432603012662 0.9636793163588122 0.0
2.8653100510114449 2.7725464512380542 0.0
3.4856121878130102 4.5949111030555292 0.0
3.5397660457414521 2.5625809907941552 0.0
2.7266226361216965 1.6120129650877901 0.0
3.7704762505031830 1.9281811243481746 0.0
3.5033106007610293 2.2870970136482347 0.0
3.1047721202792915 -0.7423251127288307 0.0
3.6586693887762158 1.3832852762230268 0.0
2.6380387151066995 2.2896957227726071 0.0
2.9405381265331290 1.1380215635696349 0.0
3.4041781423749842 2.4701706957789011 0.0
2.9802792126149238 1.5573193427317698 0.0
3.6097783358327034 -0.1730429549653185 0.0
2.4038567000393218 1.7149346256378193 0.0
2.8993144350321396 0.7399878494374784 0.0
2.7042597351890016 0.1138668156633457 0.0
3.6462943944619668 2.1469184488855757 0.0
2.9142494694890249 1.7463305012219488 0.0
2.8761168645974968 2.3479155023238305 0.0
2.9361828057314949 4.7375261715611803 0.0
2.8049871523065333 1.4812801853418753 0.0
2.5517807422975989 2.9931989624564985 0.0
2.4970965398689215 1.8977623426893910 0.0
3.1947997869697042 3.4550284267081373 0.0
2.1605954216618284 1.8335696644000159 0.0
3.5181513707754601 0.1058275251778341 0.0
3.4258926147935442 2.2945172443876536 0.0
3.3744304591074843 2.3179701540662099 0.0
3.7672960746736899 1.6658361877571142 0.0
3.6494395263921993 1.6513445018090342 0.0
3.6445185277729406 0.4686627601454528 0.0
3.0209191673336999 1.3060881973153429 0.0
1.7455232834589485 1.7711729843122141 0.0
2.7300265097403056 1.3078738732990611 0.0
3.0148077920635084 -0.9381692936717381 0.0
3.3318508606998618 2.3320333465626333 0.0
3.6826974841290583 1.8279101553139270 0.0
1.9902976521952667 0.1559621611078766 0.0
2.2864346766817789 1.1398873288148128 0.0
3.6276514916263278 3.1234249069440736 0.0
1.4901028419444262 0.5494279045278089 0.0
1.8316045764979700 3.2597424051264841 0.0
1.8020756557902271 1.0827408653105290 0.0
3.5168280877944027 1.1881599378529180 0.0
1.8377952136664579 2.2906284047162613 0.0
1.3199678870779910 0.9372916639652875 0.0
2.0735659071555088 2.3678341037421879 0.0
2.7499601351243186 3.3839537136878315 0.0
3.6240828927948252 1.0634788140305671 0.0
3.3150269460110606 0.6028858997353000 0.0
3.4606920175605840 2.2282912449292378 0.0
3.6298095929414842 -0.8471966939831725 0.0
3.4592590418313875 1.8253266356567992 0.0
3.7569525053749446 1.4329920229542610 0.0
1.9913278823452889 -0.3304386741717275 0.0
1.7027614003890581 1.6280575554247703 0.0
3.2789205997844073 2.6720099186507382 0.0
1.4664068954322762 1.7841039406789119 0.0
3.4257324045113595 2.4928711167308135 0.0
3.4914644342369794 0.8381358315662761 0.0
1.8103759229057828 0.9568651247100026 0.0
1.4737476694141480 1.4634258211255036 0.0
3.6586516069551664 -0.5174359415481793 0.0
1.8293337816383217 1.9079110170378328 0.0
1.8140174138462148 0.9510571895570700 0.0
1.7902999655257736 0.2107371527515384 0.0
3.5014636769078367 2.2996218076873389 0.0
3.3911294758477530 0.3010075564236280 0.0
3.4652479325231487 -0.1222861239912012 0.0
1.5933864681802667 3.1019288879941991 0.0
1.4973039829569734 1.2304553974412502 0.0
3.7514456571422361 1.8677681156342756 0.0
1.5582508459746298 0.9647047091457688 0.0
1.4992224310500180 2.7673686352943796 0.0
3.5520827261084515 2.0234708357798219 0.0
1.7152120553934105 -0.2559659189682041 0.0
3.6098570387274820 0.8081977410419440 0.0
3.1430137543882997 2.6561971440107688 0.0
2.7213551831717337 -1.3321524114428613 0.0
3.5378585487332241 2.2300734513505356 0.0
3.4608166147114918 1.7593322027690361 0.0
3.5924080023337903 0.2770833024663443 0.0
1.9997392609370781 3.0552653075382596 0.0
3.5371154133477036 3.6869790388450752 0.0
2.4437479800310173 4.0338509312735624 0.0
1.0372361097615186 0.9795426411361345 0.0
3.3867984104110418 2.4145602075019292 0.0
1.3774314270785817 0.7268943010471098 0.0
3.3965169195786578 0.3363917139685796 0.0
2.1349739207195788 2.1425182282307826 0.0
3.4754714862122635 2.6681425680632205 0.0
2.9559158251078612 0.9222417435898320 0.0
1.0731661440165754 0.7966995180548871 0.0
3.8007164290337916 1.7893470414510784 0.0
3.5165056515962045 -0.1167463932161206 0.0
3.6463199317467954 1.4654828434915286 0.0
2.4677177599847875 1.4857333121705496 0.0
0.7641786857912058 3.4574473386400424 0.0
1.1519755152471518 1.0342023859048550 0.0
3.6861475156550827 1.5368524255929970 0.0
1.3852568918961750 1.1374714718230401 0.0
1.4268680312383666 0.5630331404568958 0.0
3.3471548693119630 1.9846932018824419 0.0
1.6248204131596506 -0.2961428247262687 0.0
3.6864498275901325 2.0671036908303573 0.0
3.4012296280724392 1.2993910176053893 0.0
3.1564442133197108 2.2606248487761094 0.0
2.9653024809350637 3.0692234811247374 0.0
3.7868672298454946 3.1845721309920876 0.0
1.3433527265985177 0.3916292970105198 0.0
1.7226259692559096 2.4149689918870116 0.0
3.4586502219639779 2.3006693037536761 0.0
3.5946514886655421 -1.1326815500209668 0.0
1.2131304509864160 3.3076147223646384 0.0
1.4800404955122795 0.5897038997925196 0.0
1.2385767834444867 0.4985128929025158 0.0
1.3152881410848991 0.0738581350215129 0.0
3.5851552844733163 2.1652990982318099 0.0
3.4428113246712431 2.6294316743950925 0.0
3.0580211548969611 1.8719881760339570 0.0
1.0936773356050959 1.5832747144675507 0.0
3.3955085434149712 2.3704147475386170 0.0
3.7221362729473144 2.0437564556086949 0.0
3.7754959282545162 1.7761525522465571 0.0
3.5818876808464961 1.4455224652471013 0.0
1.6342460559949079 2.3191703053085719 0.0
3.6263511374257913 0.0509522340558154 0.0
1.5360507849794942 0.7210262330195520 0.0
3.7078962205645700 1.2995203173086030 0.0
3.6595998432377264 1.1699758620749794 0.0
2.7276916974011303 2.0668318737819651 0.0
3.3246639968376606 1.5356074230987462 0.0
3.1578160082823539 2.2241598122275854 0.0
3.2061248481239524 2.0523584443700402 0.0
3.5183035941162197 1.6309528982288009 0.0
3.7265427518107277 1.9764459981798219 0.0
1.4687274289255114 0.2172314145952172 0.0
2.9953781749729256 2.0801438489126416 0.0
3.0320943618482321 0.9959030242362767 0.0
3.0134103750158543 2.1166263784476116 0.0
3.0661598956618001 0.0480511458553994 0.0
3.5822293879428653 -0.3119421456504738 0.0
0.9745925576049542 1.0328864596452703 0.0
2.3277848030231336 -1.0623037802100828 0.0
3.4694255116779038 2.2856389664409194 0.0
3.0601706810244838 1.6047715952644264 0.0
3.1360956728756100 1.5624993468855561 0.0
3.4628973845432895 4.0067949947231396 0.0
0.6956300075071621 1.6556033452481986 0.0
3.4198296651960405 2.4286619319653657 0.0
1.5348488216205844 1.8289327709263736 0.0
3.1638688925894050 -0.5628166027563153 0.0
3.6412545697253345 0.7353238063723081 0.0
3.3147948708286439 2.2902752474489376 0.0
0.8438622752554839 0.6698749727045133 0.0
1.1824596407246872 2.2272190217823513 0.0
3.1378558281477815 2.8464892296817972 0.0
1.7120360179459009 2.9263734844534142 0.0
1.0958350219994983 1.8812693697626146 0.0
1.0325885151327812 1.5971423513687437 0.0
1.6649292028370726 3.0814178519188951 0.0
1.6619363162682661 1.2524699734870679 0.0
2.1902483128788566 -1.4149518457649719 0.0
2.4511017748371917 1.9128489544317513 0.0
0.8938794808202001 0.3831545419449867 0.0
0.9453114162267473 0.7140177868282414 0.0
3.7840219342869617 3.4095748268460220 0.0
1.5035722861046754 -0.0680421228062990 0.0
3.0812645385068165 0.7452940929555391 0.0
3.4238002612723890 0.0931040890807303 0.0
3.5913294221431387 2.2297973218493841 0.0
1.1250759719535046 3.3292113731522481 0.0
3.2035917544144596 0.7518922512153040 0.0
0.7857531726540908 0.4807202206889919 0.0
3.5925005350879871 -0.2008716147947703 0.0
3.3715586674230478 2.5670866554014791 0.0
1.0648488732481185 -0.0070047893533698 0.0
3.0906199873656250 -0.1516079886988162 0.0
3.1119699786619366 1.7075651504512472 0.0
3.6605320076624404 -1.5156979583112968 0.0
1.1516845868057186 0.1363430233125777 0.0
2.9272460447913149 1.7381939805945699 0.0
3.0023919692319647 2.2557460852399136 0.0
2.5290549393308934 1.9020671621091410 0.0
3.4483734901288190 2.3276089737820533 0.0
3.7024403301032529 1.7446189810973445 0.0
2.9990667445918255 1.1716728737197635 0.0
3.6159214084392017 3.7670774783124283 0.0
3.7129948799940333 1.7066277344982881 0.0
1.1813660331594107 0.7206501194409584 0.0
3.1231830235444265 3.3295955444020406 0.0
3.0676363156211655 1.6988335081426986 0.0
3.7310027405636386 1.7968979925794246 0.0
3.7687068304510580 1.6148737284706594 0.0
3.1453944341246731 2.3120056078978370 0.0
3.3943872697396262 2.3410479234112467 0.0
1.3609106801845459 -0.7605453818698018 0.0
3.6085269152400712 0.6555724167644865 0.0
3.4845491101417765 0.2725728062507849 0.0
1.6704856414826741 4.0682245088595490 0.0
2.5598273894730337 2.0948316777116407 0.0
0.8545594137762009 0.6269595985218286 0.0
3.4227144101346956 2.3158894390865581 0.0
3.7224527349486736 1.6924711761539517 0.0
3.6682816331604440 0.9950051441233876 0.0
3.5313549485369196 2.0243127897173556 0.0
3.5664214076566823 2.7730326893290744 0.0
3.6498670492083862 0.2233366008448147 0.0
3.8394128874702176 3.4357597213166189 0.0
3.5160444069132875 2.3686554020023336 0.0
3.3641804886185267 1.5228240302387084 0.0
3.6726512475588544 1.7811815617731637 0.0
3.0253593675302328 1.9754374364347116 0.0
3.7112469334708353 1.3176012437631357 0.0
3.3394730394922605 1.6951693644861165 0.0
3.1152815902883564 2.4139262873928917 0.0
3.3292433589221719 2.3024525608306319 0.0
3.3561070714317149 -0.3488181113161755 0.0
3.5732254593081905 3.8882871160701233 0.0
2.8234229673027449 2.2306405508672666 0.0
3.1860522095679684 1.4416669498738968 0.0
3.4559709559702410 0.5383764400210717 0.0
3.1003962262315272 0.4852064095737518 0.0
3.2280431214773264 0.9944748711302902 0.0
2.8356975788801693 2.7207055248362844 0.0
3.4888173522735921 4.5916204621380308 0.0
3.5974280906142777 2.5608599970440835 0.0
2.6268563192973793 1.5530803515006899 0.0
3.7714290781254829 1.9332280204395746 0.0
3.4950841914092496 2.2719286531294394 0.0
3.1063444910946929 -0.7390199217037395 0.0
3.6487902670528518 1.4126320238955707 0.0
2.5867989935444555 2.2246104830161104 0.0
3.0453205802018135 1.1805255283751210 0.0
3.4237605434993155 2.4427353694121052 0.0
3.0894256441493275 1.6169249912694614 0.0
3.5869224394548236 -0.1435237984081581 0.0
2.3187152892687251 1.6535474268790229 0.0
2.9947628271109346 0.7674692419630916 0.0
2.7391871441827593 0.1303578959530391 0.0
3.6818426931657293 2.1675585229498227 0.0
2.8199450898345972 1.7396040287042147 0.0
2.9587261663030509 2.3546582676754566 0.0
2.9367758958077816 4.7369969658665809 0.0
2.7043699949471947 1.4305115897032812 0.0
2.5422894854563594 2.9666056344095701 0.0
2.5941984317616313 1.9664785526701238 0.0
3.2237576182158838 3.4612882613124647 0.0
2.2530357379013850 1.8503554826977253 0.0
3.4716866946859368 0.1402073330954036 0.0
3.3661146145598444 2.2396754302257378 0.0
3.4277837156530624 2.3319005307170193 0.0
3.8271887160577571 1.6945673269949244 0.0
3.5834862425068272 1.6581391181841472 0.0
3.6333774815505406 0.5043642257156351 0.0
2.9473160621398038 1.3206917146733310 0.0
1.7234144556196629 1.7425790877500236 0.0
2.6293997186648141 1.2632530479051123 0.0
3.0154801400679778 -0.9352997655311389 0.0
3.3901483016990483 2.3391298198063364 0.0
3.6091785866189525 1.8011557977991968 0.0
2.0455231546416308 0.1753552063529683 0.0
2.3805361380852972 1.1837285855715307 0.0
3.6414166389050981 3.0922158593423403 0.0
1.5652527783637640 0.5760546007401293 0.0
1.8317436153646938 3.2595539458992251 0.0
1.7276648378485637 1.0335724160228217 0.0
3.4616521541713410 1.2224061156214958 0.0
1.8349750298682777 2.2810943399424390 0.0
1.2677355446640659 0.8937217543803465 0.0
2.1143883256783518 2.3724073197004487 0.0
2.7630660957369764 3.3831663612823140 0.0
3.6869188745145141 1.1005404109720203 0.0
3.2561836416884611 0.6300637653145134 0.0
3.4019876223519470 2.1796837305356367 0.0
3.6253581979732634 -0.8393295405475959 0.0
3.3678766805242284 1.7802018667832320 0.0
3.7941926401484940 1.4602833975023126 0.0
2.0001043609951257 -0.3264714149390459 0.0
1.7773503144169354 1.6614605683582868 0.0
3.2516124179660824 2.6147813552797388 0.0
1.5358714357649392 1.7922007734003111 0.0
3.4888501789106958 2.4785070713448709 0.0
3.4304749100409664 0.8801552667608270 0.0
1.7304553293747094 0.9169927541589932 0.0
1.4377245788779545 1.4187702644402886 0.0
3.6488096706797113 -0.5003712822082341 0.0
1.8235606950485923 1.8921446117256477 0.0
1.7444698015421234 0.9359161470061566 0.0
1.8589004501759865 0.2278955403235444 0.0
3.4528514071626972 2.2569116355381924 0.0
3.3477374828527537 0.3247928775844867 0.0
3.4730003426905669 -0.0888051450866092 0.0
1.5933717658045923 3.1019595487472040 0.0
1.4282266233719394 1.1748429070662434 0.0
3.6992438550345743 1.8511074586475411 0.0
1.6395458886585306 1.0134817500084441 0.0
1.5173113499833040 2.7736824590430689 0.0
3.6381385737049725 2.0716111358280811 0.0
1.7344548923176470 -0.2482508803387381 0.0
3.6484103023425867 0.8455768340038657 0.0
3.1164074448263954 2.5931734256682222 0.0
2.7214139214848858 -1.3317690698058395 0.0
3.5697203197582859 2.2439710065954634 0.0
3.3624761973501847 1.7537672227839542 0.0
3.5581238423489907 0.3107496297302587 0.0
2.0001760171924667 3.0532101549430091 0.0
3.5490800250774921 3.6711810559117910 0.0
2.4457867885446869 4.0335267364621243 0.0
1.0944236262389602 1.0284043986667741 0.0
3.3658619676484762 2.3716532367495904 0.0
1.3076676174701041 0.6906760747748142 0.0
3.4390227663195616 0.3672113983429505 0.0
2.1951672561639577 2.1501417956382984 0.0
3.5375413396509776 2.6561603115529713 0.0
2.9005098312184669 0.9433026601324963 0.0
1.0216948242230903 0.7568094874168303 0.0
3.8521514853827576 1.8210448479763830 0.0
3.4866495638172528 -0.0955705414728246 0.0
3.7293323965672269 1.5028959722083046 0.0
2.4091851921740708 1.4889901493463855 0.0
0.7641786857912060 3.4574473386400428 0.0
1.1092072650514395 0.9916060231229816 0.0
3.6691792190890418 1.5540642290246114 0.0
1.3602206907469447 1.1062848447677609 0.0
1.5069636605764052 0.5989732533484460 0.0
3.2561367054821768 1.9306573962769271 0.0
1.6284260696593871 -0.2957817203859451 0.0
3.6819526696364964 2.0671059315893818 0.0
3.3093070664909865 1.3283320709242856 0.0
3.2457114681093211 2.3095763989975517 0.0
2.9430698452206387 3.0261483147838582 0.0
3.8325759719881964 3.1803140190249821 0.0
1.4130611898811658 0.4115384442906104 0.0
1.7217670683315305 2.4103858016088031 0.0
3.4655962551630726 2.2886853647787060 0.0
3.5930929607589075 -1.1284515834038220 0.0
1.2131098160000369 3.3076195144987381 0.0
1.5560967504625474 0.6212099086585647 0.0
1.1699532027679425 0.4673839889917744 0.0
1.3742532075101541 0.0837983359257583 0.0
3.5750496048787546 2.1485279502744525 0.0
3.4652059779815252 2.5943596387344598 0.0
2.9667693640865771 1.8098088521359179 0.0
1.0788712338546624 1.5578997325288180 0.0
3.4238359684192488 2.3513761606171832 0.0
3.7678304013889261 2.0715647945573687 0.0
3.7835384368244038 1.7869309200848547 0.0
3.5296277726078658 1.4658074215825039 0.0
1.6344514703733009 2.3185889443259797 0.0
3.5992004480725206 0.0902094175907540 0.0
1.4682933250653643 0.6953963537165487 0.0
3.7427068644687513 1.3314778831405953 0.0
3.6611986134047396 1.2081656542021133 0.0
2.6661229681196046 2.0006477651516197 0.0
3.2242962559042647 1.5036592263982316 0.0
3.0895564940965867 2.1617051515224754 0.0
3.3099037778934908 2.1147803268997891 0.0
3.6173915545753039 1.6719897638319663 0.0
3.6679852975541345 1.9557460164403957 0.0
1.5101381755239767 0.2283464594845985 0.0
3.0904163285097299 2.0945798490545311 0.0
3.1359155515306640 1.0361574704479279 0.0
2.9300391308971907 2.0578976432957976 0.0
3.1087382155373233 0.0744829213795643 0.0
3.5646794877839634 -0.2967831627196958 0.0
0.9648482517829009 1.0164174422711016 0.0
2.3277529563135753 -1.0624098098100998 0.0
3.5064578846042154 2.2987537731852754 0.0