# vtk DataFile Version 3.0
LucasCarvalhoTCC Results
ASCII

DATASET POLYDATA
FIELD FieldData 1
TIME 1 1 double
1.4000000000000001

POINTS 531 float
0.02430399999999999 0.16425 0.0
0.5913384 0.481878 0.0
1.30475 0.591832 0.0
0.774126 0.951272 0.0
0.04779564148251592 0.1966194329439859 0.0
0.0726092153537953 0.2279866320496896 0.0
0.09876577335895967 0.2582426022760065 0.0
0.1262817198684718 0.2872673048853742 0.0
0.1551671626852806 0.3149288071400502 0.0
0.1854238368919928 0.3410826624766006 0.0
0.2170424591499632 0.3655716640299072 0.0
0.2499995164635996 0.3882263409476824 0.0
0.2842534387828506 0.4088665906889567 0.0
0.3197403359862048 0.4273050841371062 0.0
0.3563695945475563 0.4433531534921038 0.0
0.3940201673622058 0.4568300511916809 0.0
0.4325386107291805 0.4675762214989666 0.0
0.4717406913237268 0.4754709112408955 0.0
0.5114182513144845 0.480453442081874 0.0
0.5513531678859215 0.4825464217651069 0.0
0.6182637923774223 0.5096055604109244 0.0
0.647389101376845 0.5350126187545199 0.0
0.6784752958296183 0.5579802184492302 0.0
0.7112421079139344 0.5784810076698811 0.0
0.7454110434104482 0.5965507527581431 0.0
0.7807301979183381 0.6122562812860965 0.0
0.8169827939052532 0.6256694297140926 0.0
0.853985522124928 0.6368498290413532 0.0
0.8915818964261243 0.6458353363890481 0.0
0.9296339776508085 0.6526379336565091 0.0
0.9680139759519513 0.6572432424840469 0.0
1.006596418266983 0.659612648128084 0.0
1.045251165872634 0.6596877658251245 0.0
1.083837680945672 0.657397570658483 0.0
1.122201320191055 0.6526688455666412 0.0
1.160173053543044 0.6454405726452737 0.0
1.197574286953346 0.6356824063786186 0.0
1.23422961949795 0.6234159704281613 0.0
1.26998758503999 0.6087366500005643 0.0
1.285086682927543 0.6256533177085738 0.0
1.263669745906668 0.6583917156018083 0.0
1.240480125919214 0.6898988493917133 0.0
1.215532715641304 0.7200329197235763 0.0
1.188869833862339 0.7486599839005789 0.0
1.160556835593143 0.7756559317113654 0.0
1.130680194163798 0.8009104211039757 0.0
1.099347083827048 0.8243335727704395 0.0
1.066684425336412 0.8458643604021228 0.0
1.03283497048792 0.8654772531176074 0.0
0.9979492572630678 0.8831824104874066 0.0
0.9621749986495024 0.8990166556695112 0.0
0.9256475378616493 0.9130272060048579 0.0
0.8884846540507749 0.9252538945090274 0.0
0.8507866567183312 0.935715378288671 0.0
0.8126405010322847 0.9444016349017643 0.0
0.7365055179612304 0.9396161853607135 0.0
0.699310855231089 0.9266666891603924 0.0
0.6626179171945521 0.9123577070090924 0.0
0.6264901449910028 0.8966765244755546 0.0
0.5909789825447118 0.8796450886595113 0.0
0.556124897941028 0.8613059841617771 0.0
0.5219601957009091 0.8417124664434518 0.0
0.4885110616878257 0.8209207172498462 0.0
0.4558007060429968 0.7989848675704875 0.0
0.4238520247653796 0.775953675763176 0.0
0.3926900138417566 0.7518687036338616 0.0
0.3623437622133722 0.7267636709390595 0.0
0.3328479550295906 0.7006647540504483 0.0
0.3042438201183181 0.6735915983461908 0.0
0.2765795358619001 0.6455588748284606 0.0
0.2499101143933102 0.6165781952942546 0.0
0.2242967982692083 0.5866601984136335 0.0
0.1998060807431611 0.5558166834807132 0.0
0.1765083808984156 0.5240625786010467 0.0
0.154476512720734 0.491417660368959 0.0
0.133784033184808 0.457907916333494 0.0
0.114503564227142 0.4235664945146766 0.0
0.09670517293008124 0.3884342245925089 0.0
0.0804548910754031 0.3525597611689231 0.0
0.06581337946329963 0.3159993090744527 0.0
0.05283482490365372 0.2788161107032479 0.0
0.0415660226296666 0.2410796291505872 0.0
0.03204569406625649 0.2028646095712164 0.0
0.5272009874003867 0.6419624505772817 0.0
0.7421848286576707 0.7716726266421574 0.0
0.8789503364783713 0.7829234141383637 0.0
0.6149390992905563 0.7449438030688011 0.0
0.4064556042659638 0.5942834991165423 0.0
0.9875021850865396 0.7666507358101158 0.0
0.3188065960661005 0.539594034984892 0.0
0.61365100263957 0.6399487878797632 0.0
0.8049090660915541 0.8464379870891131 0.0
0.7099820328572021 0.6828840522539854 0.0
0.5239467234991928 0.7406922291088611 0.0
0.8154056325591208 0.7211774015928547 0.0
0.6676178829014909 0.8152713180209475 0.0
0.4416080359619968 0.674360953773491 0.0
0.489443615375965 0.5654986742123573 0.0
1.076665773779852 0.7387182918829318 0.0
0.250390543112057 0.4877450112830265 0.0
0.5736819937919005 0.5790366884881447 0.0
0.7263706755366466 0.8615301097563091 0.0
0.940143307772686 0.8233944909985552 0.0
0.927065543677544 0.7236459161626674 0.0
0.8744389806957806 0.8609114380468947 0.0
0.336888362650554 0.6081958070931937 0.0
0.2030757334857187 0.4383942902513459 0.0
0.3861483329720647 0.5255533415902591 0.0
0.5621001921466506 0.7923778419149285 0.0
0.6822897332295245 0.7428043323059399 0.0
0.5764061681675353 0.6881266532454204 0.0
1.129195449682892 0.7163224153578123 0.0
0.8157794419559141 0.7831214907157077 0.0
0.3806644703311284 0.6554275822782399 0.0
0.7695737871052837 0.669593045341503 0.0
0.4699375460410929 0.6217118815516158 0.0
0.6830867370872363 0.630350317562806 0.0
1.040416897214502 0.7929392348941093 0.0
0.4604428393605979 0.7321209818568342 0.0
0.8729552856459739 0.7015083313474691 0.0
1.017010765275644 0.7166925631396708 0.0
0.6458785458483771 0.6946878992565794 0.0
0.7733575582969163 0.8941098392103913 0.0
0.4457537579383052 0.5273353624588528 0.0
0.163830623786951 0.3903175742448083 0.0
0.6095823984734953 0.8256600013628639 0.0
0.2618074352614998 0.5435604438425528 0.0
0.6287880420949764 0.5875838132975476 0.0
0.3100402147222924 0.4835410260423071 0.0
0.5422177893302824 0.5343158927797464 0.0
0.9964262112680041 0.8213447667248638 0.0
0.4971609598823845 0.6906859160718212 0.0
0.5740517260168769 0.633982031239429 0.0
0.7423299505107201 0.7218768583704394 0.0
0.767147744476665 0.819658485932403 0.0
0.9427329070375209 0.7774595780066723 0.0
0.8375285793481674 0.8869398470561132 0.0
0.2879426409425497 0.5872676364411625 0.0
0.6797562629663748 0.8647676397847667 0.0
1.171674168522591 0.6949964056806914 0.0
0.5261010885606964 0.6055079299963303 0.0
0.7081534744446967 0.8078672678314597 0.0
0.9681672688626206 0.705385299758921 0.0
0.7364069054947873 0.6432919177737106 0.0
0.363826821075015 0.5678764295233764 0.0
0.826170216989844 0.6605791783255148 0.0
0.1284439337099834 0.3602715082199688 0.0
0.518140828090112 0.783905985497134 0.0
0.8452908336054504 0.8167586152211004 0.0
0.2015204468558833 0.492088055688788 0.0
0.4005883523205732 0.7121294304856254 0.0
0.3551392316798573 0.4864133323669936 0.0
0.2501727034998737 0.4443035857235296 0.0
0.857938396055507 0.7390317828783199 0.0
0.9245301815433076 0.8668102132501951 0.0
0.5702050292970205 0.7323438487067678 0.0
1.111607633075016 0.759318252473435 0.0
0.6317193755596126 0.7853891653733797 0.0
0.7921381265818805 0.7497379312370454 0.0
1.088942426366261 0.7015435214091311 0.0
0.5818207607488639 0.5352340257544296 0.0
0.4203532416309484 0.6369649631143086 0.0
0.4854818714173937 0.5131439318707094 0.0
0.4475429831528036 0.5690430472086269 0.0
0.8968753306595262 0.8225547516037004 0.0
0.6339557898063448 0.8543470494763272 0.0
0.3416564411796998 0.6516449771136894 0.0
1.082970576264455 0.7856036465430698 0.0
0.2255204648032354 0.5229464838393291 0.0
0.7335043541589261 0.9012744999286941 0.0
0.9097052989734319 0.6921177492721042 0.0
0.5363428275528405 0.6992389299864537 0.0
0.9657777897300287 0.8588269742066746 0.0
1.025947476617909 0.7556651119714124 0.0
0.1090829970454354 0.3226173037985549 0.0
0.4836644525169279 0.7663103281018557 0.0
0.6910856326166581 0.777867529208468 0.0
0.6694391877434097 0.5946719355048008 0.0
0.2954883530575775 0.4501042133334518 0.0
0.6746032498128595 0.6643957640016517 0.0
1.054636636429828 0.6974583960183274 0.0
0.8939255235163368 0.7470597914537064 0.0
0.3749741568555516 0.6190655430398917 0.0
1.204101441114554 0.6801433534918062 0.0
0.6130053345415899 0.6785345531932346 0.0
0.7679719108452487 0.8562682874000032 0.0
0.9710820219997449 0.8008372590855476 0.0
0.1608022352294362 0.4242591696906621 0.0
0.2865399820604418 0.5141369963640697 0.0
0.1962258775846918 0.4008383427744516 0.0
0.6210920174972845 0.5516143721732873 0.0
0.4843009180093644 0.6583977883024127 0.0
0.5695029195102991 0.8267073580550881 0.0
0.9562891163300477 0.7436031251145003 0.0
0.4174190173896447 0.5044019081507806 0.0
0.410860431802698 0.5535781448116232 0.0
0.8709320861791604 0.9002602580953145 0.0
0.427354757192076 0.7399041791280969 0.0
0.7107884943357746 0.7172753954970394 0.0
1.030382288537246 0.8267335242583146 0.0
0.7737440530215844 0.7115751739064536 0.0
0.8042035044852396 0.9123190309183211 0.0
0.0480920891272324 0.2181807374272496 0.0
0.3695079235280397 0.6886893012630373 0.0
0.773516204411121 0.7830673827025234 0.0
0.302776671534508 0.6210168062901616 0.0
0.7150573728414059 0.6149413270404035 0.0
0.5863276441271683 0.769748656022605 0.0
1.143752049005473 0.6780480059671409 0.0
0.6477132714923303 0.7318578097016951 0.0
0.8380052680878572 0.8531154611905379 0.0
0.5966224054445893 0.6051703156405629 0.0
0.3207240819522855 0.5772784374275386 0.0
0.3520131451607586 0.5263918604440553 0.0
0.8573528491808811 0.6709738722470224 0.0
0.1797236573643203 0.460867988842514 0.0
0.5540828191547277 0.6661566975721369 0.0
1.158039843450239 0.7357536542887966 0.0
0.08638006908591334 0.286237566592474 0.0
0.790861820497242 0.6466611559014377 0.0
0.5362079962218838 0.8121454698907893 0.0
0.9405172130232713 0.6862060282668497 0.0
0.6039359324506977 0.711463595189489 0.0
0.4440093493753478 0.6096873538428137 0.0
0.5500746279087338 0.7620941994763282 0.0
0.2578504496023611 0.5739900063885278 0.0
0.502526452350101 0.6209820553182169 0.0
0.6799833858912959 0.7033681517905728 0.0
0.7183487148906835 0.7518430858176317 0.0
0.8006701240044786 0.8118713608014352 0.0
0.1304684854221093 0.3934039266496895 0.0
1.00789495394612 0.7937868725857601 0.0
0.696960396255943 0.893370944718147 0.0
0.8258315165019564 0.7538365084989149 0.0
0.8462950259502577 0.775614153529746 0.0
0.4082018839227037 0.6749460331934272 0.0
0.7025889307788081 0.8378536687159448 0.0
0.4666676520109517 0.6984557076050861 0.0
[...]
POINT_DATA 531

VECTORS Velocity float
0.0000000000000000 1.0000000000000000 0.0
0.0000000000000000 1.0000000000000000 0.0
2.6383548494557258 -0.9589621054896167 0.0
1.9100473651521503 1.0423618564005919 0.0
0.0000000000000000 1.0000000000000000 0.0
0.0000000000000000 1.0000000000000000 0.0
0.0000000000000000 1.0000000000000000 0.0
0.0000000000000000 1.0000000000000000 0.0
0.0000000000000000 1.0000000000000000 0.0
0.0000000000000000 1.0000000000000000 0.0
0.0000000000000000 1.0000000000000000 0.0
0.0000000000000000 1.0000000000000000 0.0
0.0000000000000000 1.0000000000000000 0.0
0.0000000000000000 1.0000000000000000 0.0
0.0000000000000000 1.0000000000000000 0.0
0.0000000000000000 1.0000000000000000 0.0
0.0000000000000000 1.0000000000000000 0.0
0.0000000000000000 1.0000000000000000 0.0
0.0000000000000000 1.0000000000000000 0.0
0.0000000000000000 1.0000000000000000 0.0
0.0000000000000000 0.0000000000000000 0.0
0.0000000000000000 0.0000000000000000 0.0
0.0000000000000000 0.0000000000000000 0.0
0.0000000000000000 0.0000000000000000 0.0
0.0000000000000000 0.0000000000000000 0.0
0.0000000000000000 0.0000000000000000 0.0
0.0000000000000000 0.0000000000000000 0.0
0.0000000000000000 0.0000000000000000 0.0
0.0000000000000000 0.0000000000000000 0.0
0.0000000000000000 0.0000000000000000 0.0
0.0000000000000000 0.0000000000000000 0.0
0.0000000000000000 0.0000000000000000 0.0
0.0000000000000000 0.0000000000000000 0.0
0.0000000000000000 0.0000000000000000 0.0
0.0000000000000000 0.0000000000000000 0.0
0.0000000000000000 0.0000000000000000 0.0
0.0000000000000000 0.0000000000000000 0.0
0.0000000000000000 0.0000000000000000 0.0
0.0000000000000000 0.0000000000000000 0.0
2.6786152139726482 -1.7954407590394099 0.0
3.6719041749903325 -2.3074772965678956 0.0
3.7490740578398469 -2.2223910786925045 0.0
3.7258094260185399 -1.9194577661733663 0.0
3.6936010763264560 -1.6086247549424333 0.0
3.6801577040315165 -1.2408978618613102 0.0
3.6645470350809681 -0.9994948553061984 0.0
3.6525195013795155 -0.7487816826437546 0.0
3.5339762641031638 -0.4285552305235629 0.0
3.4997155957585271 -0.1941420569033301 0.0
3.4187067724864661 0.0387259809649222 0.0
3.2881744324945048 0.2618739984150036 0.0
3.2018075522174678 0.4444395244220936 0.0
3.0152723360074458 0.6187014715205347 0.0
2.6022472356287016 1.0393647331531979 0.0
1.9662944044150095 0.9246044344134620 0.0
0.0000000000000000 0.0000000000000000 0.0
0.0000000000000000 0.0000000000000000 0.0
0.0000000000000000 0.0000000000000000 0.0
0.0000000000000000 0.0000000000000000 0.0
0.0000000000000000 0.0000000000000000 0.0
0.0000000000000000 0.0000000000000000 0.0
0.0000000000000000 0.0000000000000000 0.0
0.0000000000000000 0.0000000000000000 0.0
0.0000000000000000 0.0000000000000000 0.0
0.0000000000000000 0.0000000000000000 0.0
0.0000000000000000 0.0000000000000000 0.0
0.0000000000000000 0.0000000000000000 0.0
0.0000000000000000 0.0000000000000000 0.0
0.0000000000000000 0.0000000000000000 0.0
0.0000000000000000 0.0000000000000000 0.0
0.0000000000000000 0.0000000000000000 0.0
0.0000000000000000 0.0000000000000000 0.0
0.0000000000000000 0.0000000000000000 0.0
0.0000000000000000 0.0000000000000000 0.0
0.0000000000000000 0.0000000000000000 0.0
0.0000000000000000 0.0000000000000000 0.0
0.0000000000000000 0.0000000000000000 0.0
0.0000000000000000 0.0000000000000000 0.0
0.0000000000000000 0.0000000000000000 0.0
0.0000000000000000 0.0000000000000000 0.0
0.0000000000000000 0.0000000000000000 0.0
0.0000000000000000 0.0000000000000000 0.0
0.0000000000000000 0.0000000000000000 0.0
3.5246075951978142 2.3970112758654287 0.0
3.8588552799543709 1.7600436789129703 0.0
3.7542444883376724 0.9941008410164347 0.0
3.6672372032286047 2.1065362760187436 0.0
3.6400080473841787 2.8530064715233738 0.0
3.6515445452911464 0.1769259459605874 0.0
3.8691592681107192 3.4869406658835107 0.0
3.5143710692284365 2.3619617323079209 0.0
3.5097081226667859 1.5757602042054262 0.0
3.5776451773576379 1.7155779442011085 0.0
3.0585952835843018 2.0014426260129614 0.0
3.5965312515452981 1.2946475359588594 0.0
3.4072237778989596 1.7281382632820037 0.0
3.1781374907752795 2.4650546255193486 0.0
3.2557204870708829 2.3398223767690309 0.0
3.2861540731715357 -0.3785903452727162 0.0
3.5846567059350205 3.8880379741674900 0.0
2.6758093125856948 2.1771591450125540 0.0
3.2103515020357962 1.4545267685426961 0.0
3.5919915465537349 0.5102803708295467 0.0
2.9056297943481590 0.4383609818317342 0.0
3.3601005453612385 1.0086584617453689 0.0
2.8456607751314382 2.7381380684345165 0.0
3.4885153392894139 4.5922940977029292 0.0
3.5633091398958476 2.5887345045204819 0.0
2.6263684338064697 1.5488564908989393 0.0
3.9057349668624917 2.0109873866549144 0.0
3.6164223406287035 2.3669892284505440 0.0
3.0380592400113446 -0.7460460050799532 0.0
3.7648667022033084 1.4502750309400856 0.0
2.6026821196220080 2.2214837508615246 0.0
2.8462996093233088 1.1124048526975761 0.0
3.5342268977139102 2.5367181402153847 0.0
2.8975687575013094 1.4966318626501038 0.0
3.6779849908940179 -0.1955795687995867 0.0
2.2941054613050955 1.6527856314633205 0.0
2.7684066394949753 0.7145825304362173 0.0
2.5792121828470944 0.1047536698239871 0.0
3.7586726937300683 2.2226780174004106 0.0
2.8428686917496244 1.7323956821106488 0.0
2.8415679152908688 2.3722302688156662 0.0
2.9356010854663652 4.7378712373133736 0.0
2.7086580251282277 1.4379476130075117 0.0
2.5449560697065601 2.9517832142028131 0.0
2.4055080714802282 1.8351023864120242 0.0
3.2208607326876981 3.4777966190044518 0.0
2.0730488261594728 1.8127442106715104 0.0
3.6078647372499524 0.0872594452934126 0.0
3.4580811397562141 2.3124103081800289 0.0
3.4787202458251252 2.3818587743728092 0.0
3.8303467735685048 1.7193431567630744 0.0
3.7392979871731793 1.7301213436680913 0.0
3.6849766844802234 0.4725039839056991 0.0
3.0177492606399814 1.3614795223253429 0.0
1.7052306418782570 1.7378768220998690 0.0
2.6242006599474417 1.2500008404301248 0.0
2.9660288778073038 -0.9659674662553995 0.0
3.4227727582473593 2.3833406926879350 0.0
3.7493356896492465 1.8650821223901355 0.0
1.8746824150953907 0.1372069890220361 0.0
2.2102946048001733 1.1171409278517037 0.0
3.6727547879112636 3.1550503787512683 0.0
1.4008140514935512 0.5224425467128759 0.0
1.8315372881107190 3.2598031985089331 0.0
1.7290271777540345 1.0291530496464896 0.0
3.6096061316742736 1.2496624834689700 0.0
1.8396823189925231 2.2796906423826981 0.0
1.2547864317183945 0.8787004047400562 0.0
2.0758351999492226 2.3722453833729213 0.0
2.7622932350990346 3.3862217327867703 0.0
3.6027759906120211 1.0701433573259647 0.0
3.3778597015694238 0.6164509180864637 0.0
3.5068824132542806 2.2490685263616834 0.0
3.6790242311841732 -0.9033081762984301 0.0
3.4480236124797710 1.8280494761033415 0.0
3.8384197412085825 1.4902557804296725 0.0
1.9028854870751235 -0.3211112531460075 0.0
1.6274520576075786 1.5981493066971064 0.0
3.3330076914476403 2.6667896869394445 0.0
1.4059567350856612 1.7822016522215047 0.0
3.4800140471263816 2.5574751033145464 0.0
3.5732620392805665 0.8766929627376482 0.0
1.7327570630739049 0.9171725248484625 0.0
1.4387408439000611 1.4164387189851286 0.0
3.7317025764907648 -0.5833311437683893 0.0
1.8286566384083349 1.8802205784810055 0.0
1.7399970560887823 0.9228908097516996 0.0
1.6764473392535533 0.1955109652668806 0.0
3.5601496025001556 2.3333291531861975 0.0
3.4709261401990052 0.2865976220872327 0.0
3.4311848929556663 -0.1444114888253006 0.0
1.5934217973716958 3.1019058057045048 0.0
1.4216984819172889 1.1819476800797342 0.0
3.8483791652552273 1.9270058702215753 0.0
1.4837769797248370 0.9152610783794314 0.0
1.5023766648078578 2.7733945824524957 0.0
3.5728440491957842 2.0355106357999126 0.0
1.6248692555640507 -0.2539499926696512 0.0
3.6016137440806264 0.8062790650966227 0.0
3.1550186186236604 2.6210965293196788 0.0
2.7079194282638697 -1.3612123559565086 0.0
3.6508685298197001 2.3199208901857693 0.0
3.4632315048479549 1.7967114215360067 0.0
3.6644827911044064 0.2743204430238780 0.0
1.9999255244149265 3.0553612560092960 0.0
3.5792354829415638 3.6965180249677236 0.0
2.4437356658247360 4.0338628024874952 0.0
0.9823862301765166 0.9322633096918843 0.0
3.4815018241022746 2.4633361684301409 0.0
1.3009690931783955 0.6864634511317494 0.0
3.3228609964742497 0.3231323606967659 0.0
2.1153733751047374 2.1570739957480085 0.0
3.5123843109991570 2.7228480610641119 0.0
2.9587670307368370 0.9498498227204606 0.0
1.0050483376601098 0.7428962744509545 0.0
3.8869045505383379 1.8322489358026912 0.0
3.6208998211788166 -0.1549743422907864 0.0
3.6448468096889015 1.4891044347714983 0.0
2.4137825366816799 1.5064098475222625 0.0
0.7641784040648554 3.4574473914579200 0.0
1.1006044036122311 0.9812366594562666 0.0
3.8063288864621687 1.6123731724121342 0.0
1.3543299777186573 1.1035104427632014 0.0
1.3629291258319356 0.5333144894215329 0.0
3.3258870288093823 1.9702782619494301 0.0
1.5566575664962292 -0.2902463170668821 0.0
3.8221572621838025 2.1524958260391323 0.0
3.4574826641969492 1.3653796889581584 0.0
3.1537090579975873 2.2591463949523383 0.0
2.9443590879699864 3.0607632825807856 0.0
3.8367161387228204 3.2195153260853902 0.0
1.2540500144588251 0.3698447553948950 0.0
1.7242122653378218 2.4125949901801205 0.0
3.5862744101645019 2.3667058452424659 0.0
3.6328963053268426 -1.2017514238083344 0.0
1.2131382660135550 3.3076103892109856 0.0
1.4000262793269656 0.5582602177911794 0.0
1.1686496951226037 0.4675853132717510 0.0
1.2258190983703137 0.0677365356390655 0.0
3.7060216689021588 2.2432086650908092 0.0
3.5573354768400058 2.6963128642422971 0.0
3.0070060325671832 1.8241981036586556 0.0
1.0664017775707455 1.5437432957408492 0.0
3.5259074611916721 2.4369434182027727 0.0
3.8206795091669172 2.1065975231337561 0.0
3.8992629003389836 1.8528568429898811 0.0
3.6827895764040797 1.5199074856675903 0.0
1.6339617462211014 2.3195269803586616 0.0
3.6920458119346371 0.0303538015986902 0.0
1.4575849275213182 0.6951859406875804 0.0
3.7741480964744034 1.3432254660004543 0.0
3.7451280610865014 1.2119508040637541 0.0
2.6802267738713610 1.9877494186517035 0.0
3.2854891444571366 1.5313435682256948 0.0
3.1454886467167205 2.2103879892297287 0.0
3.1606533352417761 2.0252727079418227 0.0
3.4815968664727395 1.6457603865859329 0.0
3.8129966114083267 2.0467351122043587 0.0
1.3795838373365794 0.2035906522369917 0.0
2.9697155464039056 2.0846430774464131 0.0
2.9093044652378599 0.9604274098418005 0.0
2.9535221460905356 2.1045829466227053 0.0
2.9504947381666637 0.0357823943613518 0.0
3.6986487084333084 -0.3727332670868722 0.0
0.9593118901348535 0.9996352910466623 0.0
2.3209536815363023 -1.0688975592463801 0.0
3.5908072586268083 2.3615302885908700 0.0
2.9960271323263181 1.5495695965007956 0.0
3.1265734054415417 1.6149738596160512 0.0
3.4745143849754001 3.9954307318348938 0.0
0.6485469005241856 1.6511620068662276 0.0
3.5141548664216917 2.5013054251964464 0.0
1.5236949781678850 1.8288854314453087 0.0
3.1084442022746370 -0.5788613804108231 0.0
3.7041837447337982 0.7549285746987859 0.0
3.3851518745767262 2.3354147514972921 0.0
0.7859152420365622 0.6259116675831152 0.0
1.1775490640067825 2.2297674800541016 0.0
3.1317055925733301 2.8201885364349950 0.0
1.7144155790317919 2.9247235832789862 0.0
1.0592221252851763 1.8772124289427727 0.0
0.9713294856748480 1.5905321010816074 0.0
1.6644489489620715 3.0814763299467240 0.0
1.6041505659431810 1.2299984752277733 0.0
2.1899370457424130 -1.4153579442898878 0.0
2.3614109353634167 1.8299960411447718 0.0
0.8361275247053644 0.3590041752252060 0.0
0.8910230796544013 0.6757944542805687 0.0
3.8327654484764504 3.4374952553576099 0.0
1.4339419226221692 -0.0663307917585405 0.0
3.1052936192351503 0.7640652205544836 0.0
3.5147830539029341 0.0660322380092554 0.0
3.6523238970769287 2.2765379999060524 0.0
1.1250726430510276 3.3292137415429686 0.0
3.0821412995167599 0.7413175858715979 0.0
0.7350375774324007 0.4507676355273769 0.0
3.5917347522707908 -0.2375519568802155 0.0
3.4600107384973673 2.6101419838432705 0.0
0.9939410895205244 -0.0067969419754847 0.0
2.9907003258272522 -0.1623677547464834 0.0
3.0171968847467805 1.6509099777329239 0.0
3.6771987616272979 -1.5888869999070823 0.0
1.0705291889855475 0.1294093114018580 0.0
2.8220325610552504 1.7014906000362580 0.0
2.9576250407326357 2.2868058593906722 0.0
2.4454529921569885 1.9054737360475353 0.0
3.5554021685677024 2.3877411939237594 0.0
3.7364551990112833 1.7854991770284925 0.0
2.8915869326491190 1.1500496905245481 0.0
3.6495099885961912 3.7842062745501064 0.0
3.8223525848691486 1.7814704213031209 0.0
1.1148648907815195 0.6836213859965764 0.0
3.1363787140413617 3.3003173172437683 0.0
2.9862460829064363 1.6892544308653707 0.0
3.8463414324957195 1.8763845553245075 0.0
3.8628758773581802 1.6809350158771121 0.0
3.1288013178771181 2.2939602830486105 0.0
3.4864261653145920 2.3908149197741251 0.0
1.3219067814438812 -0.7611589545515870 0.0
3.5943948356345019 0.6573203890229528 0.0
3.5696338839828092 0.2603611550115394 0.0
1.6702670394204100 4.0683377504876024 0.0
2.4816358082252457 2.0444091925446477 0.0
0.8155305979050529 0.6188635969879348 0.0
3.5496254725725072 2.3842923642937572 0.0
3.8482105722384654 1.7696475627346984 0.0
3.7492999231880675 1.0298218712964520 0.0
3.6135620263233759 2.0732961975163295 0.0
3.6551587206121572 2.8199502554887701 0.0
3.6535093324069181 0.2092860609461184 0.0
3.8803129878653526 3.4647778553357571 0.0
3.5800121151348243 2.4037080256644434 0.0
3.4307850057043785 1.5952228087617182 0.0
3.6603269427803480 1.7637801501712729 0.0
2.9813834788344225 1.9417206954817983 0.0
3.6738764130052148 1.3293116620315124 0.0
3.3178335513154340 1.6881351344576911 0.0
3.1260122918354734 2.4046628781262895 0.0
3.3337824779592791 2.3399891891924534 0.0
3.2900571197058288 -0.3660618299947082 0.0
3.5896943903007181 3.8768074484299428 0.0
2.7586624775051627 2.2111363099703287 0.0
3.1174016786813152 1.4312664915713784 0.0
3.5457486589525273 0.5431146190003028 0.0
2.9645881641594536 0.4620800212354303 0.0
3.2910695389840128 1.0351678744977788 0.0
2.8229016493034531 2.6946384866348367 0.0
3.4903929149572712 4.5902708075675500 0.0
3.6104719237553593 2.5855678673385367 0.0
2.5386549157460929 1.4973685375280437 0.0
3.9068835180318104 2.0160179105938751 0.0
3.6077512386459936 2.3514757222025611 0.0
3.0388598630169037 -0.7442937055052237 0.0
3.7559336450359133 1.4799774338812735 0.0
2.5595995306840922 2.1656058128817728 0.0
2.9381164348139186 1.1499821022948886 0.0
3.5529940988462001 2.5095453569229762 0.0
2.9937083926407553 1.5486274092829697 0.0
3.6619844307247118 -0.1723845361065270 0.0
2.2210898292399950 1.5990757794479198 0.0
2.8502173742072241 0.7386753402653244 0.0
2.6051621113083514 0.1194722217532404 0.0
3.7930702387328412 2.2433490043873445 0.0
2.7624510498114621 1.7270308390652254 0.0
2.9118517828660542 2.3772196949287632 0.0
2.9358038119802541 4.7376328686509641 0.0
2.6204734236647687 1.3928120843796425 0.0
2.5390740734218258 2.9325927607961813 0.0
2.4901525050790303 1.8951289630545016 0.0
3.2419613836999339 3.4810568347081134 0.0
2.1530178934992765 1.8269497721182353 0.0
3.5717912579514657 0.1154500811910149 0.0
3.4019118488076607 2.2604949779313546 0.0
3.5301899215675867 2.3953503864874994 0.0
3.8875268769785829 1.7471756989558271 0.0
3.6757880357360810 1.7364216844861733 0.0
3.6756710031741542 0.5054517406222923 0.0
2.9558577262491448 1.3737232391811454 0.0
1.6893484642014993 1.7158269361087972 0.0
2.5364345502836270 1.2121675545521093 0.0
2.9662281562201915 -0.9647835853807586 0.0
3.4783228556617938 2.3899058892360152 0.0
3.6788368804461076 1.8397604799290928 0.0
1.9189659524355815 0.1541922428613006 0.0
2.2920691487927982 1.1557943399607522 0.0
3.6851711128492521 3.1267282271336247 0.0
1.4641181544054451 0.5450748326888946 0.0
1.8315585606316414 3.2597662505297293 0.0
1.6644975953368113 0.9871077007516286 0.0
3.5593227392157742 1.2820976963734418 0.0
1.8382578882178129 2.2737570814163650 0.0
1.2112561344610959 0.8424841697630238 0.0
2.1077284546081874 2.3744873407016347 0.0
2.7706429005720286 3.3851988469448684 0.0
3.6589300371528735 1.1048198747253151 0.0
3.3291679413960340 0.6392885187773869 0.0
3.4509154641346185 2.2028296044540649 0.0
3.6772115737158884 -0.8987658621753178 0.0
3.3633451742043334 1.7860259664286253 0.0
3.8748449144984680 1.5173279927540884 0.0
1.9074617994350573 -0.3181215443274725 0.0
1.6915985010291259 1.6268186236780200 0.0
3.3093813834739714 2.6146772122570936 0.0
1.4642027114619485 1.7889113838097876 0.0
3.5362048283845731 2.5430937991213254 0.0
3.5208257758316761 0.9146214317374730 0.0
1.6638741494886791 0.8826290654436769 0.0
1.4096710666214078 1.3794743702514862 0.0
3.7261718894818610 -0.5713181325617451 0.0
1.8252593050037549 1.8696473794009925 0.0
1.6815120629295945 0.9107867612606467 0.0
1.7331939051623146 0.2101383760655086 0.0
3.5137014626910776 2.2924332672091445 0.0
3.4360684682349292 0.3061744611170794 0.0
3.4374632779123377 -0.1161600970308246 0.0
1.5934010767290485 3.1019214020404364 0.0
1.3628347347935130 1.1338811938187459 0.0
3.7982380137047929 1.9108238503189050 0.0
1.5530843470522664 0.9567345507062291 0.0
1.5145975382353019 2.7771725740381989 0.0
3.6530424660467280 2.0805525651013750 0.0
1.6373208676921567 -0.2473186953948230 0.0
3.6351586478482671 0.8406547926167773 0.0
3.1340937673817759 2.5662082000427096 0.0
2.7079127731201154 -1.3612284091123814 0.0
3.6815941816019038 2.3339493909968660 0.0
3.3738922288656652 1.7919831750910771 0.0
3.6368361359052090 0.3040652770081524 0.0
2.0002451594075228 3.0544745878738708 0.0
3.5887240797355080 3.6836068240118038 0.0
2.4446465589354771 4.0336019768099440 0.0
1.0307016879810242 0.9732484814112419 0.0
3.4613657100006638 2.4218440258529932 0.0
1.2419216352534403 0.6559129659904557 0.0
3.3575914584071076 0.3509916366191302 0.0
2.1651212078496407 2.1627306173769645 0.0
3.5652903620099368 2.7103638847483764 0.0
2.9130579562880334 0.9670059753505256 0.0
0.9622698753777376 0.7096117624128067 0.0
3.9364776819002687 1.8623808517067080 0.0
3.5987556922975061 -0.1384927184246321 0.0
3.7216137900477695 1.5242228590320963 0.0
2.3656822760142022 1.5088080106866892 0.0
0.7641784040648554 3.4574473914579200 0.0
1.0653781296439160 0.9456668251142439 0.0
3.7903249212785735 1.6296320360942271 0.0
1.3354292929065876 1.0789804977485378 0.0
1.4311602862304673 0.5637131204952696 0.0
3.2414810426549949 1.9204224793247247 0.0
1.5579579107388821 -0.2900131355571220 0.0
3.8176139955753046 2.1528645868984437 0.0
3.3759096981903691 1.3904435898759255 0.0
3.2358634714646621 2.3040588408381879 0.0
2.9279727134976179 3.0249922808958698 0.0
3.8734638914180253 3.2136184490228588 0.0
1.3122587909859689 0.3867900529304752 0.0
1.7240156110338818 2.4101471019724112 0.0
3.5923903990380612 2.3548173276690663 0.0
3.6325761531225815 -1.1999455986514151 0.0
1.2131323589083127 3.3076119720822952 0.0
1.4643996441236125 0.5849156058949473 0.0
1.1105307763639316 0.4415827269073914 0.0
1.2738665856691225 0.0761538017520205 0.0
3.6956099614066242 2.2269761205609822 0.0
3.5783651216815491 2.6617301069439239 0.0
2.9242321443482124 1.7685953846231757 0.0
1.0561730174419952 1.5251514603452956 0.0
3.5530866215454795 2.4178977278353129 0.0
3.8648390274620650 2.1338966612895933 0.0
3.9077862302390831 1.8630571396093236 0.0
3.6325612733882586 1.5403398887628161 0.0
1.6340576518795979 2.3194086706755450 0.0
3.6717142416415207 0.0630729736144651 0.0
1.4005841425225654 0.6734438418410471 0.0
3.8074051899225072 1.3747464502515137 0.0
3.7467170945281230 1.2497383918489648 0.0
2.6274200962824938 1.9308608283691289 0.0
3.1944641064713606 1.5030950310102291 0.0
3.0834144679827480 2.1531143835932745 0.0
3.2540898309346269 2.0816639356129714 0.0
3.5712874124199283 1.6839460986922419 0.0
3.7564943561697866 2.0262743351467649 0.0
1.4115912437934908 0.2130641601042685 0.0
3.0555197892864356 2.0969644255464015 0.0
2.9991591423026045 0.9957676504367493 0.0
2.8792532400272597 2.0507273164686404 0.0
2.9838035751167085 0.0595942675889704 0.0
3.6866601646333605 -0.3615106863979159 0.0
0.9528427020198462 0.9881676910065944 0.0
2.3208993967569027 -1.0689646097505054 0.0
3.6266683153919210 2.3741660732603416 0.0