# vtk DataFile Version 3.0
LucasCarvalhoTCC Results
ASCII

DATASET POLYDATA
FIELD FieldData 1
TIME 1 1 double
5.5

POINTS 531 float
0.02430399999999999 0.16425 0.0
0.5913384 0.481878 0.0
1.30475 0.591832 0.0
0.774126 0.951272 0.0
0.04779564148251592 0.1966194329439859 0.0
0.0726092153537953 0.2279866320496896 0.0
0.09876577335895967 0.2582426022760065 0.0
0.1262817198684718 0.2872673048853742 0.0
0.1551671626852806 0.3149288071400502 0.0
0.1854238368919928 0.3410826624766006 0.0
0.2170424591499632 0.3655716640299072 0.0
0.2499995164635996 0.3882263409476824 0.0
0.2842534387828506 0.4088665906889567 0.0
0.3197403359862048 0.4273050841371062 0.0
0.3563695945475563 0.4433531534921038 0.0
0.3940201673622058 0.4568300511916809 0.0
0.4325386107291805 0.4675762214989666 0.0
0.4717406913237268 0.4754709112408955 0.0
0.5114182513144845 0.480453442081874 0.0
0.5513531678859215 0.4825464217651069 0.0
0.6182637923774223 0.5096055604109244 0.0
0.647389101376845 0.5350126187545199 0.0
0.6784752958296183 0.5579802184492302 0.0
0.7112421079139344 0.5784810076698811 0.0
0.7454110434104482 0.5965507527581431 0.0
0.7807301979183381 0.6122562812860965 0.0
0.8169827939052532 0.6256694297140926 0.0
0.853985522124928 0.6368498290413532 0.0
0.8915818964261243 0.6458353363890481 0.0
0.9296339776508085 0.6526379336565091 0.0
0.9680139759519513 0.6572432424840469 0.0
1.006596418266983 0.659612648128084 0.0
1.045251165872634 0.6596877658251245 0.0
1.083837680945672 0.657397570658483 0.0
1.122201320191055 0.6526688455666412 0.0
1.160173053543044 0.6454405726452737 0.0
1.197574286953346 0.6356824063786186 0.0
1.23422961949795 0.6234159704281613 0.0
1.26998758503999 0.6087366500005643 0.0
1.285086682927543 0.6256533177085738 0.0
1.263669745906668 0.6583917156018083 0.0
1.240480125919214 0.6898988493917133 0.0
1.215532715641304 0.7200329197235763 0.0
1.188869833862339 0.7486599839005789 0.0
1.160556835593143 0.7756559317113654 0.0
1.130680194163798 0.8009104211039757 0.0
1.099347083827048 0.8243335727704395 0.0
1.066684425336412 0.8458643604021228 0.0
1.03283497048792 0.8654772531176074 0.0
0.9979492572630678 0.8831824104874066 0.0
0.9621749986495024 0.8990166556695112 0.0
0.9256475378616493 0.9130272060048579 0.0
0.8884846540507749 0.9252538945090274 0.0
0.8507866567183312 0.935715378288671 0.0
0.8126405010322847 0.9444016349017643 0.0
0.7365055179612304 0.9396161853607135 0.0
0.699310855231089 0.9266666891603924 0.0
0.6626179171945521 0.9123577070090924 0.0
0.6264901449910028 0.8966765244755546 0.0
0.5909789825447118 0.8796450886595113 0.0
0.556124897941028 0.8613059841617771 0.0
0.5219601957009091 0.8417124664434518 0.0
0.4885110616878257 0.8209207172498462 0.0
0.4558007060429968 0.7989848675704875 0.0
0.4238520247653796 0.775953675763176 0.0
0.3926900138417566 0.7518687036338616 0.0
0.3623437622133722 0.7267636709390595 0.0
0.3328479550295906 0.7006647540504483 0.0
0.3042438201183181 0.6735915983461908 0.0
0.2765795358619001 0.6455588748284606 0.0
0.2499101143933102 0.6165781952942546 0.0
0.2242967982692083 0.5866601984136335 0.0
0.1998060807431611 0.5558166834807132 0.0
0.1765083808984156 0.5240625786010467 0.0
0.154476512720734 0.491417660368959 0.0
0.133784033184808 0.457907916333494 0.0
0.114503564227142 0.4235664945146766 0.0
0.09670517293008124 0.3884342245925089 0.0
0.0804548910754031 0.3525597611689231 0.0
0.06581337946329963 0.3159993090744527 0.0
0.05283482490365372 0.2788161107032479 0.0
0.0415660226296666 0.2410796291505872 0.0
0.03204569406625649 0.2028646095712164 0.0
0.5272009874003867 0.6419624505772817 0.0
0.7421848286576707 0.7716726266421574 0.0
0.8789503364783713 0.7829234141383637 0.0
0.6149390992905563 0.7449438030688011 0.0
0.4064556042659638 0.5942834991165423 0.0
0.9875021850865396 0.7666507358101158 0.0
0.3188065960661005 0.539594034984892 0.0
0.61365100263957 0.6399487878797632 0.0
0.8049090660915541 0.8464379870891131 0.0
0.7099820328572021 0.6828840522539854 0.0
0.5239467234991928 0.7406922291088611 0.0
0.8154056325591208 0.7211774015928547 0.0
0.6676178829014909 0.8152713180209475 0.0
0.4416080359619968 0.674360953773491 0.0
0.489443615375965 0.5654986742123573 0.0
1.076665773779852 0.7387182918829318 0.0
0.250390543112057 0.4877450112830265 0.0
0.5736819937919005 0.5790366884881447 0.0
0.7263706755366466 0.8615301097563091 0.0
0.940143307772686 0.8233944909985552 0.0
0.927065543677544 0.7236459161626674 0.0
0.8744389806957806 0.8609114380468947 0.0
0.336888362650554 0.6081958070931937 0.0
0.2030757334857187 0.4383942902513459 0.0
0.3861483329720647 0.5255533415902591 0.0
0.5621001921466506 0.7923778419149285 0.0
0.6822897332295245 0.7428043323059399 0.0
0.5764061681675353 0.6881266532454204 0.0
1.129195449682892 0.7163224153578123 0.0
0.8157794419559141 0.7831214907157077 0.0
0.3806644703311284 0.6554275822782399 0.0
0.7695737871052837 0.669593045341503 0.0
0.4699375460410929 0.6217118815516158 0.0
0.6830867370872363 0.630350317562806 0.0
1.040416897214502 0.7929392348941093 0.0
0.4604428393605979 0.7321209818568342 0.0
0.8729552856459739 0.7015083313474691 0.0
1.017010765275644 0.7166925631396708 0.0
0.6458785458483771 0.6946878992565794 0.0
0.7733575582969163 0.8941098392103913 0.0
0.4457537579383052 0.5273353624588528 0.0
0.163830623786951 0.3903175742448083 0.0
0.6095823984734953 0.8256600013628639 0.0
0.2618074352614998 0.5435604438425528 0.0
0.6287880420949764 0.5875838132975476 0.0
0.3100402147222924 0.4835410260423071 0.0
0.5422177893302824 0.5343158927797464 0.0
0.9964262112680041 0.8213447667248638 0.0
0.4971609598823845 0.6906859160718212 0.0
0.5740517260168769 0.633982031239429 0.0
0.7423299505107201 0.7218768583704394 0.0
0.767147744476665 0.819658485932403 0.0
0.9427329070375209 0.7774595780066723 0.0
0.8375285793481674 0.8869398470561132 0.0
0.2879426409425497 0.5872676364411625 0.0
0.6797562629663748 0.8647676397847667 0.0
1.171674168522591 0.6949964056806914 0.0
0.5261010885606964 0.6055079299963303 0.0
0.7081534744446967 0.8078672678314597 0.0
0.9681672688626206 0.705385299758921 0.0
0.7364069054947873 0.6432919177737106 0.0
0.363826821075015 0.5678764295233764 0.0
0.826170216989844 0.6605791783255148 0.0
0.1284439337099834 0.3602715082199688 0.0
0.518140828090112 0.783905985497134 0.0
0.8452908336054504 0.8167586152211004 0.0
0.2015204468558833 0.492088055688788 0.0
0.4005883523205732 0.7121294304856254 0.0
0.3551392316798573 0.4864133323669936 0.0
0.2501727034998737 0.4443035857235296 0.0
0.857938396055507 0.7390317828783199 0.0
0.9245301815433076 0.8668102132501951 0.0
0.5702050292970205 0.7323438487067678 0.0
1.111607633075016 0.759318252473435 0.0
0.6317193755596126 0.7853891653733797 0.0
0.7921381265818805 0.7497379312370454 0.0
1.088942426366261 0.7015435214091311 0.0
0.5818207607488639 0.5352340257544296 0.0
0.4203532416309484 0.6369649631143086 0.0
0.4854818714173937 0.5131439318707094 0.0
0.4475429831528036 0.5690430472086269 0.0
0.8968753306595262 0.8225547516037004 0.0
0.6339557898063448 0.8543470494763272 0.0
0.3416564411796998 0.6516449771136894 0.0
1.082970576264455 0.7856036465430698 0.0
0.2255204648032354 0.5229464838393291 0.0
0.7335043541589261 0.9012744999286941 0.0
0.9097052989734319 0.6921177492721042 0.0
0.5363428275528405 0.6992389299864537 0.0
0.9657777897300287 0.8588269742066746 0.0
1.025947476617909 0.7556651119714124 0.0
0.1090829970454354 0.3226173037985549 0.0
0.4836644525169279 0.7663103281018557 0.0
0.6910856326166581 0.777867529208468 0.0
0.6694391877434097 0.5946719355048008 0.0
0.2954883530575775 0.4501042133334518 0.0
0.6746032498128595 0.6643957640016517 0.0
1.054636636429828 0.6974583960183274 0.0
0.8939255235163368 0.7470597914537064 0.0
0.3749741568555516 0.6190655430398917 0.0
1.204101441114554 0.6801433534918062 0.0
0.6130053345415899 0.6785345531932346 0.0
0.7679719108452487 0.8562682874000032 0.0
0.9710820219997449 0.8008372590855476 0.0
0.1608022352294362 0.4242591696906621 0.0
0.2865399820604418 0.5141369963640697 0.0
0.1962258775846918 0.4008383427744516 0.0
0.6210920174972845 0.5516143721732873 0.0
0.4843009180093644 0.6583977883024127 0.0
0.5695029195102991 0.8267073580550881 0.0
0.9562891163300477 0.7436031251145003 0.0
0.4174190173896447 0.5044019081507806 0.0
0.410860431802698 0.5535781448116232 0.0
0.8709320861791604 0.9002602580953145 0.0
0.427354757192076 0.7399041791280969 0.0
0.7107884943357746 0.7172753954970394 0.0
1.030382288537246 0.8267335242583146 0.0
0.7737440530215844 0.7115751739064536 0.0
0.8042035044852396 0.9123190309183211 0.0
0.0480920891272324 0.2181807374272496 0.0
0.3695079235280397 0.6886893012630373 0.0
0.773516204411121 0.7830673827025234 0.0
0.302776671534508 0.6210168062901616 0.0
0.7150573728414059 0.6149413270404035 0.0
0.5863276441271683 0.769748656022605 0.0
1.143752049005473 0.6780480059671409 0.0
0.6477132714923303 0.7318578097016951 0.0
0.8380052680878572 0.8531154611905379 0.0
0.5966224054445893 0.6051703156405629 0.0
0.3207240819522855 0.5772784374275386 0.0
0.3520131451607586 0.5263918604440553 0.0
0.8573528491808811 0.6709738722470224 0.0
0.1797236573643203 0.460867988842514 0.0
0.5540828191547277 0.6661566975721369 0.0
1.158039843450239 0.7357536542887966 0.0
0.08638006908591334 0.286237566592474 0.0
0.790861820497242 0.6466611559014377 0.0
0.5362079962218838 0.8121454698907893 0.0
0.9405172130232713 0.6862060282668497 0.0
0.6039359324506977 0.711463595189489 0.0
0.4440093493753478 0.6096873538428137 0.0
0.5500746279087338 0.7620941994763282 0.0
0.2578504496023611 0.5739900063885278 0.0
0.502526452350101 0.6209820553182169 0.0
0.6799833858912959 0.7033681517905728 0.0
0.7183487148906835 0.7518430858176317 0.0
0.8006701240044786 0.8118713608014352 0.0
0.1304684854221093 0.3934039266496895 0.0
1.00789495394612 0.7937868725857601 0.0
0.696960396255943 0.893370944718147 0.0
0.8258315165019564 0.7538365084989149 0.0
0.8462950259502577 0.775614153529746 0.0
0.4082018839227037 0.6749460331934272 0.0
0.7025889307788081 0.8378536687159448 0.0
0.4666676520109517 0.6984557076050861 0.0
[...]
POINT_DATA 531

VECTORS Velocity float
0.0000000000000000 1.0000000000000000 0.0
0.0000000000000000 1.0000000000000000 0.0
2.6381913329998303 -0.9593296916807201 0.0
1.7830441057156614 1.0218010786457963 0.0
0.0000000000000000 1.0000000000000000 0.0
0.0000000000000000 1.0000000000000000 0.0
0.0000000000000000 1.0000000000000000 0.0
0.0000000000000000 1.0000000000000000 0.0
0.0000000000000000 1.0000000000000000 0.0
0.0000000000000000 1.0000000000000000 0.0
0.0000000000000000 1.0000000000000000 0.0
0.0000000000000000 1.0000000000000000 0.0
0.0000000000000000 1.0000000000000000 0.0
0.0000000000000000 1.0000000000000000 0.0
0.0000000000000000 1.0000000000000000 0.0
0.0000000000000000 1.0000000000000000 0.0
0.0000000000000000 1.0000000000000000 0.0
0.0000000000000000 1.0000000000000000 0.0
0.0000000000000000 1.0000000000000000 0.0
0.0000000000000000 1.0000000000000000 0.0
0.0000000000000000 0.0000000000000000 0.0
0.0000000000000000 0.0000000000000000 0.0
0.0000000000000000 0.0000000000000000 0.0
0.0000000000000000 0.0000000000000000 0.0
0.0000000000000000 0.0000000000000000 0.0
0.0000000000000000 0.0000000000000000 0.0
0.0000000000000000 0.0000000000000000 0.0
0.0000000000000000 0.0000000000000000 0.0
0.0000000000000000 0.0000000000000000 0.0
0.0000000000000000 0.0000000000000000 0.0
0.0000000000000000 0.0000000000000000 0.0
0.0000000000000000 0.0000000000000000 0.0
0.0000000000000000 0.0000000000000000 0.0
0.0000000000000000 0.0000000000000000 0.0
0.0000000000000000 0.0000000000000000 0.0
0.0000000000000000 0.0000000000000000 0.0
0.0000000000000000 0.0000000000000000 0.0
0.0000000000000000 0.0000000000000000 0.0
0.0000000000000000 0.0000000000000000 0.0
2.6783011669306340 -1.7943041754498499 0.0
3.6707065851353202 -2.3036406933139282 0.0
3.7614838800395791 -2.2272060201925146 0.0
3.7623773350665086 -1.9754620658478268 0.0
3.8545926592080417 -1.7624673891895812 0.0
3.9603339835824314 -1.4642771580395850 0.0
4.0228360373673215 -1.3132655564319591 0.0
4.1531197683549008 -1.0905503886957695 0.0
4.1435875225662908 -0.7990792367169696 0.0
4.1299617958843378 -0.5355235965777967 0.0
3.9992253211756728 -0.2414624370715661 0.0
3.7789677964853730 0.0571245639948868 0.0
3.5884423765950659 0.2894102115479653 0.0
3.2245332883988111 0.5391586272099244 0.0
2.5986360384159455 1.0887393822580129 0.0
1.7557426037403088 0.9401469404741365 0.0
0.0000000000000000 0.0000000000000000 0.0
0.0000000000000000 0.0000000000000000 0.0
0.0000000000000000 0.0000000000000000 0.0
0.0000000000000000 0.0000000000000000 0.0
0.0000000000000000 0.0000000000000000 0.0
0.0000000000000000 0.0000000000000000 0.0
0.0000000000000000 0.0000000000000000 0.0
0.0000000000000000 0.0000000000000000 0.0
0.0000000000000000 0.0000000000000000 0.0
0.0000000000000000 0.0000000000000000 0.0
0.0000000000000000 0.0000000000000000 0.0
0.0000000000000000 0.0000000000000000 0.0
0.0000000000000000 0.0000000000000000 0.0
0.0000000000000000 0.0000000000000000 0.0
0.0000000000000000 0.0000000000000000 0.0
0.0000000000000000 0.0000000000000000 0.0
0.0000000000000000 0.0000000000000000 0.0
0.0000000000000000 0.0000000000000000 0.0
0.0000000000000000 0.0000000000000000 0.0
0.0000000000000000 0.0000000000000000 0.0
0.0000000000000000 0.0000000000000000 0.0
0.0000000000000000 0.0000000000000000 0.0
0.0000000000000000 0.0000000000000000 0.0
0.0000000000000000 0.0000000000000000 0.0
0.0000000000000000 0.0000000000000000 0.0
0.0000000000000000 0.0000000000000000 0.0
0.0000000000000000 0.0000000000000000 0.0
0.0000000000000000 0.0000000000000000 0.0
3.9937080651788754 2.6035905933463477 0.0
4.2940055101962029 2.1495971682783681 0.0
3.9125758394372467 1.1805397143046539 0.0
3.8355319859144341 2.2070172513103357 0.0
3.8189872783438794 2.9208179402577539 0.0
3.4390334443589192 0.0794568034816212 0.0
3.9083426820000651 3.4771843591844935 0.0
3.7733348516121228 2.4451169032808777 0.0
3.7505295045934397 1.9529507410782567 0.0
3.5747422215853657 1.7357133600582779 0.0
2.8431400856237277 1.8031365164843565 0.0
3.3556833269194235 1.3762295058711611 0.0
3.2224829919876465 1.6703544366715133 0.0
3.1615541910289466 2.3473543869762676 0.0
3.2673004275577409 2.5101971949621151 0.0
3.0252460612596339 -0.4964847147698939 0.0
3.6099006551139330 3.8488004694635420 0.0
2.5020308768546795 2.1152069236868707 0.0
2.9151013883993899 1.4062291428756819 0.0
3.9232213928698147 0.5415229261709141 0.0
2.3377424407068736 0.3675929394224010 0.0
3.6784104127145540 1.2282920507696689 0.0
2.7990615207800711 2.6319055924488182 0.0
3.4916869712616356 4.5880058547056954 0.0
3.6311278245153096 2.6434476860053864 0.0
2.2612766371907465 1.3297270823433933 0.0
4.3359213367326133 2.3482634492091194 0.0
4.0171733974812369 2.5833175206996994 0.0
2.8533278174021195 -0.7926889477814313 0.0
4.1187321229970379 1.8066347503234974 0.0
2.5167276119722106 2.0348632048718542 0.0
2.5406279665212868 1.0672883006892722 0.0
3.9295816501014817 2.7320758815613768 0.0
2.7072826064916500 1.3440967645235051 0.0
3.8236570264478371 -0.4223277208814764 0.0
1.9763078925314927 1.4390236452213105 0.0
2.2384824007667041 0.6141794604612318 0.0
2.0946715182965736 0.0425641652580860 0.0
4.1684435954653214 2.4759742924929808 0.0
2.6124341667772022 1.7115821509937772 0.0
2.8009636862580161 2.4551381479742846 0.0
2.9347240427378090 4.7381420409118844 0.0
2.3665649825728190 1.2630706121005659 0.0
2.5248277319272678 2.8797843997474581 0.0
2.1689459417786501 1.6413120942193740 0.0
3.2862738810243490 3.5019827190604813 0.0
1.8129768345930410 1.7688572950442356 0.0
3.9819440977371148 -0.0859572721124142 0.0
3.5045040086254358 2.2719597660708239 0.0
3.8777664684605173 2.5707104606142099 0.0
3.9930947779999553 1.9965925251339598 0.0
4.0525148463880125 2.1014636812245531 0.0
3.6346879558880896 0.4568048203301774 0.0
3.1101827295301949 1.5917541862087727 0.0
1.6451821703239324 1.6771260772441190 0.0
2.2529985063373648 1.0717464952757030 0.0
2.8658804947212202 -1.0474960806721565 0.0
3.7235162197855445 2.5606340951381759 0.0
3.8873934425120700 1.9870240957000782 0.0
1.4239733305516289 0.0756364914384699 0.0
2.0093656085427813 1.0903920379503287 0.0
3.7349855660127855 3.1686905729230905 0.0
1.1132605181625956 0.4431711679795423 0.0
1.8313769604864887 3.2599898824883295 0.0
1.4797897644219755 0.8571758300094728 0.0
3.9887593539946726 1.5742722777698990 0.0
1.8405613167589279 2.2639545144083151 0.0
1.0949342773880206 0.7282886006916020 0.0
2.1229623604075618 2.3896860352203761 0.0
2.7846749388498218 3.3820590740413783 0.0
3.3385790170615754 1.0959718587229916 0.0
3.8119124303581580 0.6556493403095264 0.0
3.5834393623587917 2.2322343224903052 0.0
3.7620780530710745 -1.1241153194832865 0.0
3.2972779338945832 1.7764376941019968 0.0
4.0274833768599221 1.7919973795499144 0.0
1.6430664415072189 -0.3330350407408131 0.0
1.4073223471865048 1.5083203070109488 0.0
3.4469521906984086 2.5945383557428450 0.0
1.2838994446166612 1.8018776806912857 0.0
3.6016106516840822 2.7471833248893232 0.0
3.9283232890342701 1.0844545344659340 0.0
1.4706041246941868 0.7791503831762516 0.0
1.3699678102385848 1.3070916419868996 0.0
3.9145960808272346 -0.9229775190564634 0.0
1.8248054724217821 1.8424554358505265 0.0
1.5145612846450422 0.8477994971322275 0.0
1.2572668188980849 0.1581728042602086 0.0
3.7155025646657998 2.3621037736921502 0.0
4.0038994144591262 0.1589348939549051 0.0
3.1486839057241172 -0.3054787147236443 0.0
1.5934208250540580 3.1018866733081354 0.0
1.1935109039522178 1.0122693421179685 0.0
4.1107630275435652 2.1500396141347480 0.0
1.3131610691630440 0.7936094505413750 0.0
1.5297310264163240 2.7802560754445897 0.0
3.6683708792640739 2.0931985749981243 0.0
1.3311501172075204 -0.2675212287686847 0.0
3.3330439957713893 0.8000984155411828 0.0
3.1586619390875326 2.4970580284481838 0.0
2.6858943722145048 -1.4075814703535123 0.0
4.0883467346175806 2.6102382038963845 0.0
3.4378463447373648 1.9600039288586031 0.0
3.8165616761471428 0.2212291350479665 0.0
2.0000915138563293 3.0560203401363850 0.0
3.6268457955889075 3.6732445906136331 0.0
2.4430497003064815 4.0338008607028710 0.0
0.8441158499563753 0.8007575179342974 0.0
3.7628283198344104 2.5517643372418659 0.0
1.0682888674845483 0.5647090178690872 0.0
2.8619526266877688 0.2531090523942436 0.0
2.1204783729180772 2.2100682234502256 0.0
3.5953518464915590 2.8408410608127497 0.0
3.1120015691884433 1.0493827784423753 0.0
0.8295644886744864 0.5963569618672750 0.0
4.1518636511078375 2.0520668047280184 0.0
4.1086823185481256 -0.4479053849740234 0.0
3.5561279183971135 1.6349896466199025 0.0
2.2885594958881308 1.5818735557976291 0.0
0.7641786056068959 3.4574472034376713 0.0
0.9879310465505494 0.8493498798959396 0.0
4.2447843539301608 2.0213063508828628 0.0
1.3049730433997557 1.0408293390107903 0.0
1.2194386359355003 0.4743785552052643 0.0
3.1323076760548374 1.8537948034003557 0.0
1.4075850738591582 -0.2950804556114152 0.0
4.2630149510133926 2.4494185314045605 0.0
3.7339945140722595 1.6807806205234697 0.0
3.1614481441382365 2.2122493823249463 0.0
2.8938083040879641 3.0000639486694198 0.0
3.9307852833785821 3.2629780732886977 0.0
0.9553836397629005 0.2999009284373878 0.0
1.7262019167888241 2.4100479353971465 0.0
4.0601998173351310 2.5489644981975785 0.0
3.6904930339924178 -1.4011510471247961 0.0
1.2131528230956563 3.3076046121298535 0.0
1.1602583924462231 0.4748728092569686 0.0
0.9516824908664867 0.3797196874837158 0.0
0.9006518200267409 0.0541286027450510 0.0
4.1161130475870733 2.4667522573549077 0.0
3.8341578768647491 2.8500432041324397 0.0
2.7575940355133164 1.6233462051019107 0.0
1.0306375274681105 1.4842139539933656 0.0
3.9566823453383480 2.6530265233337000 0.0
4.1562042310285490 2.3591560870122250 0.0
4.3010385490040646 2.2111127436161992 0.0
4.0848484110814960 1.9348295047807076 0.0
1.6335575201073900 2.3202409996553928 0.0
3.8024518140254933 -0.1604878931745438 0.0
1.2215861306972005 0.6148362953885657 0.0
3.8600417666338078 1.5392965957144256 0.0
3.9453729112861273 1.4200273324285548 0.0
2.5595966392365419 1.7552335586484600 0.0
3.0815771647202546 1.5163762776546839 0.0
3.0744162934869781 2.0857986260041814 0.0
3.0605002493522702 1.9364399189580404 0.0
3.3511699420548231 1.7670615301167609 0.0
4.0020229848363220 2.2654398534490090 0.0
1.0504617968854857 0.1453920644189743 0.0
2.8651022464367286 2.1268183804982468 0.0
2.4125265601088608 0.8506580401602624 0.0
2.7394005371260777 1.9905949106732541 0.0
2.4261493845772772 -0.0410355642073218 0.0
4.1393265163465482 -0.7544073998260927 0.0
0.9397237732449710 0.9564854805881637 0.0
2.3130022203797620 -1.0760787709577706 0.0
4.0719718343587834 2.5920811795565859 0.0
2.8375818058479738 1.4282333820419744 0.0
3.1241321816418486 1.8579001532211159 0.0
3.4918103970369936 3.9778892334727431 0.0
0.5225078167861229 1.6424099119107578 0.0
3.7479132860200077 2.7526869949657304 0.0
1.5498271673000643 1.8408711967081359 0.0
2.9148604945410272 -0.6986543188439370 0.0
3.7818188308384779 0.8300618379514042 0.0
3.6210712647079473 2.4715854320646322 0.0
0.6326189103431957 0.5003142697445427 0.0
1.2012229199700324 2.2395581901743600 0.0
3.1055935111814574 2.7514157968535007 0.0
1.7180031830532785 2.9227351328763205 0.0
1.0183844382220921 1.8915302459507881 0.0
0.8140594353604971 1.5835010191085890 0.0
1.6637111041764547 3.0813956447375457 0.0
1.4418150719289955 1.1785321917927818 0.0
2.1903284557517124 -1.4148729669556792 0.0
2.1164760901054644 1.5729940868248455 0.0
0.6649425667457610 0.2931112998395295 0.0
0.7629624221882318 0.5775035431693755 0.0
3.9205784600514262 3.4621285258725227 0.0
1.2632618191527862 -0.0779766647648115 0.0
3.3801161296204869 0.8362787536543251 0.0
4.0833872980580734 -0.1669374399811407 0.0
3.8949064171018772 2.4005056631404837 0.0
1.1250736464540976 3.3292141637164603 0.0
2.5151225571289171 0.6922292806347563 0.0
0.5947838049896148 0.3578930649827962 0.0
3.4641706197543245 -0.4799761338354880 0.0
3.6872063608673105 2.6473938663143599 0.0
0.7482278072086187 -0.0151791672104033 0.0
2.5867092955011817 -0.2664080059349387 0.0
2.6533471718225701 1.4253523440788514 0.0
3.6935920448610871 -1.7348198350218587 0.0
0.7984294299113945 0.1057755226771023 0.0
2.4258982146001480 1.5368253428466072 0.0
2.8539983213217681 2.4195726762264633 0.0
2.2156910051099881 1.9600667607676794 0.0
3.9141529602307203 2.5318554763303229 0.0
3.7767320247970813 1.9357574969267224 0.0
2.4990070836676632 1.1022039885228330 0.0
3.7092805566310800 3.7864683807665993 0.0
4.1881726866000797 2.1223680357009393 0.0
0.9347570813120196 0.5962722405824565 0.0
3.1438836679226672 3.2361657780769266 0.0
2.7172285718183207 1.6686120393686810 0.0
4.2219156620009430 2.2058285611378325 0.0
4.1404321049631969 2.0268588488851544 0.0
3.1003547373959224 2.1896826922961128 0.0
3.7378375640767958 2.5808934253779694 0.0
1.2607621136523930 -0.7697124317280359 0.0
3.2941138510483619 0.6469741892899679 0.0
3.9889055809343836 0.1445704655335265 0.0
1.6698213782757854 4.0683861877286969 0.0
2.2518952544763189 1.8653982900855302 0.0
0.7063307072568386 0.6015684936951295 0.0
4.0027100509953648 2.5970169984881726 0.0
4.2900553769812868 2.1553511157867682 0.0
3.9126566083280010 1.1906555163374886 0.0
3.8200283190580158 2.1978502597321738 0.0
3.8229319295965527 2.9131228369614885 0.0
3.4393590792682480 0.0837790474009201 0.0
3.9096581711755407 3.4745346122169365 0.0
3.7923452719807140 2.4552339587910810 0.0
3.7337625078880641 1.9598307847766043 0.0
3.5954684639695453 1.7485955311659906 0.0
2.8250064477286632 1.7876819644630804 0.0
3.3710894872766168 1.3876615541395054 0.0
3.1997882081711504 1.6615847736058522 0.0
3.1535926795549067 2.3318807241468149 0.0
3.2829774886001153 2.5069813049822112 0.0
3.0252722124077476 -0.4964106947545892 0.0
3.6098155643301650 3.8490178122618888 0.0
2.5211829796285117 2.1210042905880448 0.0
2.8948724841931273 1.4022998104443625 0.0
3.9190690072972587 0.5475019615670376 0.0
2.3438222578344798 0.3723304968712400 0.0
3.6677444342454910 1.2335915068054688 0.0
2.7983977069188293 2.6269253917830331 0.0
3.4915980801564994 4.5880953789105430 0.0
3.6354793140501167 2.6414681011852186 0.0
2.2405378448819575 1.3176079423313198 0.0
4.3356521757608899 2.3506497612866921 0.0
4.0153178696446048 2.5773457087142977 0.0
2.8532786849824197 -0.7927946868368646 0.0
4.1167790677638187 1.8184472817589437 0.0
2.5120899622546431 2.0258879522673330 0.0
2.5604709120214086 1.0769896893392643 0.0
3.9364227511928331 2.7213584295963500 0.0
2.7302637056043424 1.3560557345309820 0.0
3.8236182882913483 -0.4213627898054113 0.0
1.9622261406642136 1.4266091731178105 0.0
2.2505504210794069 0.6193739148032483 0.0
2.0953184511866860 0.0438136268034446 0.0
4.1781068402789483 2.4821374822040885 0.0
2.5971924203595345 1.7110905918062171 0.0
2.8106141209070419 2.4542379645345904 0.0
2.9347125880486593 4.7381542129848260 0.0
2.3458246569419536 1.2523135083749173 0.0
2.5252446518494547 2.8797763024857597 0.0
2.1882877290877185 1.6541149434153908 0.0
3.2863818175922086 3.5015112480975805 0.0
1.8283255638933547 1.7707880280415340 0.0
3.9802177886751484 -0.0833768699219431 0.0
3.4930328418811802 2.2560721690324552 0.0
3.8937886872478296 2.5721680168338734 0.0
4.0074442574456199 2.0067639244497562 0.0
4.0361884547144431 2.1054579406764735 0.0
3.6341702363318071 0.4632214498627855 0.0
3.1001675042398671 1.5943752427065068 0.0
1.6451988240461000 1.6761882935545553 0.0
2.2332358656943883 1.0645439135704569 0.0
2.8658596308698265 -1.0475661061110662 0.0
3.7389667108710380 2.5588601206702233 0.0
3.8675015802192561 1.9823334346447155 0.0
1.4269919581319845 0.0782492566962174 0.0
2.0279171515632988 1.1001401195981018 0.0
3.7373491121904605 3.1637728029093162 0.0
1.1242602097836940 0.4479332714796300 0.0
1.8313754201905252 3.2599925705874742 0.0
1.4650545488874467 0.8475648152572554 0.0
3.9797295261001513 1.5838541404100968 0.0
1.8406195687898199 2.2642156654145413 0.0
1.0885088120730555 0.7221787011411523 0.0
2.1245664609753576 2.3888864912559442 0.0
2.7843561586247931 3.3820680377315644 0.0
3.3479463871232205 1.1061828028482643 0.0
3.8064406741614194 0.6593378895523148 0.0
3.5684323430041349 2.2190908776061939 0.0
3.7621969728426379 -1.1243049943603460 0.0
3.2750556953831444 1.7658026475723345 0.0
4.0357615785669561 1.8033653883463978 0.0
1.6428415715808595 -0.3331149683445520 0.0
1.4202088765129719 1.5133912934159370 0.0
3.4453354053903555 2.5832726779896595 0.0
1.2924828669932047 1.8022291213751762 0.0
3.6114988437065532 2.7415235088627687 0.0
3.9218960201521287 1.0930729269156092 0.0
1.4549720882558015 0.7715441600677725 0.0
1.3675541175156662 1.3027250455093280 0.0
3.9148211049998607 -0.9229796552986729 0.0
1.8250017291803031 1.8427499927330413 0.0
1.5033256960935837 0.8459119305046944 0.0
1.2634097238499626 0.1612079959873360 0.0
3.7043484505471214 2.3494018152098350 0.0
4.0011689869702254 0.1610715036840920 0.0
3.1490179006900250 -0.3034880049010903 0.0
1.5934212460898713 3.1018860870776015 0.0
1.1810925400593235 1.0011341896147752 0.0
4.0960539352940435 2.1469662347313356 0.0
1.3286780042628503 0.8025958495880645 0.0
1.5293939492921007 2.7801391520242449 0.0
3.6896842307949580 2.1052796687068036 0.0
1.3310134580209618 -0.2672767905512364 0.0
3.3374226829650939 0.8088568143352421 0.0
3.1582069434381927 2.4883322630294651 0.0
2.6858938524754765 -1.4075849267629155 0.0
4.0975875815250049 2.6138963210842165 0.0
3.4181135044883346 1.9604994753887781 0.0
3.8149074687346496 0.2255819069159074 0.0
2.0000747372025787 3.0560690472855589 0.0
3.6271907031540440 3.6726483609633336 0.0
2.4429983811179512 4.0338194920789023 0.0
0.8542225804362631 0.8087185242095287 0.0
3.7607736551270072 2.5377110457688632 0.0
1.0551657127615914 0.5579460358298176 0.0
2.8648110198243741 0.2579333785476972 0.0
2.1257480800068298 2.2096104702268038 0.0
3.6024176570553119 2.8364645352274884 0.0
3.1053117264529075 1.0520620087263317 0.0
0.8222144586304593 0.5899809008516559 0.0
4.1648473659005756 2.0616019673061303 0.0
4.1081988342018043 -0.4471080926837778 0.0
3.5736387809386123 1.6467698678820168 0.0
2.2805964847282514 1.5823227168014258 0.0
0.7641786056068959 3.4574472034376718 0.0
0.9836845906703776 0.8440226371555620 0.0
4.2398845380575505 2.0298358811146038 0.0
1.3044571223814014 1.0392270230622687 0.0
1.2347472196981075 0.4811636269216312 0.0
3.1102218894249627 1.8409596263549868 0.0
1.4074969462376847 -0.2951006212031184 0.0
4.2612266240434442 2.4498915645235697 0.0
3.7194408157842451 1.6862706116527721 0.0
3.1828512345676279 2.2215156381914412 0.0
2.8936508091666271 2.9966380297077992 0.0
3.9335707551159400 3.2608398280006790 0.0
0.9640077975330206 0.3031357313162708 0.0
1.7262063568614665 2.4101748543934880 0.0
4.0639284021914737 2.5432969661371185 0.0
3.6905268110969502 -1.4012717017623049 0.0
1.2131529817356657 3.3076046184498162 0.0
1.1729293295319889 0.4805842139381085 0.0
0.9388358764496013 0.3740365220798564 0.0
0.9049112868951412 0.0556144868680397 0.0
4.1129554392079228 2.4619055325519983 0.0
3.8400352618570897 2.8393398323954111 0.0
2.7369921087283342 1.6094567583810102 0.0
1.0308471768918157 1.4840146376875167 0.0
3.9657937706489732 2.6440098954612470 0.0
4.1682849438939202 2.3675787810501969 0.0
4.3027103868153338 2.2159615700596489 0.0
4.0725202169267911 1.9435249759128588 0.0
1.6335526009786063 2.3202489998291966 0.0
3.8019826612288554 -0.1576268169776710 0.0
1.2103110537316428 0.6106037416109383 0.0
3.8669972848928036 1.5511617366104731 0.0
3.9457429631130645 1.4327905350875472 0.0
2.5526841622055385 1.7448900456782950 0.0
3.0595288284816919 1.5114949307528818 0.0
3.0625017597441166 2.0704022576575922 0.0
3.0839113219423187 1.9499666994308689 0.0
3.3724138366431080 1.7786717912120258 0.0
3.9857341402061359 2.2600742006182868 0.0
1.0517854928778170 0.1462417510718221 0.0
2.8842033631466863 2.1271272264072789 0.0
2.4275677730702130 0.8592885441936994 0.0
2.7234316747172231 1.9757115462053925 0.0
2.4279748002425863 -0.0379563073848339 0.0
4.1394063574461821 -0.7542631597223532 0.0
0.9399430600601849 0.9566876803778983 0.0
2.3130034278573617 -1.0760766503929731 0.0