# vtk DataFile Version 3.0
LucasCarvalhoTCC Results
ASCII

DATASET POLYDATA
FIELD FieldData 1
TIME 1 1 double
6.7

POINTS 531 float
0.02430399999999999 0.16425 0.0
0.5913384 0.481878 0.0
1.30475 0.591832 0.0
0.774126 0.951272 0.0
0.04779564148251592 0.1966194329439859 0.0
0.0726092153537953 0.2279866320496896 0.0
0.09876577335895967 0.2582426022760065 0.0
0.1262817198684718 0.2872673048853742 0.0
0.1551671626852806 0.3149288071400502 0.0
0.1854238368919928 0.3410826624766006 0.0
0.2170424591499632 0.3655716640299072 0.0
0.2499995164635996 0.3882263409476824 0.0
0.2842534387828506 0.4088665906889567 0.0
0.3197403359862048 0.4273050841371062 0.0
0.3563695945475563 0.4433531534921038 0.0
0.3940201673622058 0.4568300511916809 0.0
0.4325386107291805 0.4675762214989666 0.0
0.4717406913237268 0.4754709112408955 0.0
0.5114182513144845 0.480453442081874 0.0
0.5513531678859215 0.4825464217651069 0.0
0.6182637923774223 0.5096055604109244 0.0
0.647389101376845 0.5350126187545199 0.0
0.6784752958296183 0.5579802184492302 0.0
0.7112421079139344 0.5784810076698811 0.0
0.7454110434104482 0.5965507527581431 0.0
0.7807301979183381 0.6122562812860965 0.0
0.8169827939052532 0.6256694297140926 0.0
0.853985522124928 0.6368498290413532 0.0
0.8915818964261243 0.6458353363890481 0.0
0.9296339776508085 0.6526379336565091 0.0
0.9680139759519513 0.6572432424840469 0.0
1.006596418266983 0.659612648128084 0.0
1.045251165872634 0.6596877658251245 0.0
1.083837680945672 0.657397570658483 0.0
1.122201320191055 0.6526688455666412 0.0
1.160173053543044 0.6454405726452737 0.0
1.197574286953346 0.6356824063786186 0.0
1.23422961949795 0.6234159704281613 0.0
1.26998758503999 0.6087366500005643 0.0
1.285086682927543 0.6256533177085738 0.0
1.263669745906668 0.6583917156018083 0.0
1.240480125919214 0.6898988493917133 0.0
1.215532715641304 0.7200329197235763 0.0
1.188869833862339 0.7486599839005789 0.0
1.160556835593143 0.7756559317113654 0.0
1.130680194163798 0.8009104211039757 0.0
1.099347083827048 0.8243335727704395 0.0
1.066684425336412 0.8458643604021228 0.0
1.03283497048792 0.8654772531176074 0.0
0.9979492572630678 0.8831824104874066 0.0
0.9621749986495024 0.8990166556695112 0.0
0.9256475378616493 0.9130272060048579 0.0
0.8884846540507749 0.9252538945090274 0.0
0.8507866567183312 0.935715378288671 0.0
0.8126405010322847 0.9444016349017643 0.0
0.7365055179612304 0.9396161853607135 0.0
0.699310855231089 0.9266666891603924 0.0
0.6626179171945521 0.9123577070090924 0.0
0.6264901449910028 0.8966765244755546 0.0
0.5909789825447118 0.8796450886595113 0.0
0.556124897941028 0.8613059841617771 0.0
0.5219601957009091 0.8417124664434518 0.0
0.4885110616878257 0.8209207172498462 0.0
0.4558007060429968 0.7989848675704875 0.0
0.4238520247653796 0.775953675763176 0.0
0.3926900138417566 0.7518687036338616 0.0
0.3623437622133722 0.7267636709390595 0.0
0.3328479550295906 0.7006647540504483 0.0
0.3042438201183181 0.6735915983461908 0.0
0.2765795358619001 0.6455588748284606 0.0
0.2499101143933102 0.6165781952942546 0.0
0.2242967982692083 0.5866601984136335 0.0
0.1998060807431611 0.5558166834807132 0.0
0.1765083808984156 0.5240625786010467 0.0
0.154476512720734 0.491417660368959 0.0
0.133784033184808 0.457907916333494 0.0
0.114503564227142 0.4235664945146766 0.0
0.09670517293008124 0.3884342245925089 0.0
0.0804548910754031 0.3525597611689231 0.0
0.06581337946329963 0.3159993090744527 0.0
0.05283482490365372 0.2788161107032479 0.0
0.0415660226296666 0.2410796291505872 0.0
0.03204569406625649 0.2028646095712164 0.0
0.5272009874003867 0.6419624505772817 0.0
0.7421848286576707 0.7716726266421574 0.0
0.8789503364783713 0.7829234141383637 0.0
0.6149390992905563 0.7449438030688011 0.0
0.4064556042659638 0.5942834991165423 0.0
0.9875021850865396 0.7666507358101158 0.0
0.3188065960661005 0.539594034984892 0.0
0.61365100263957 0.6399487878797632 0.0
0.8049090660915541 0.8464379870891131 0.0
0.7099820328572021 0.6828840522539854 0.0
0.5239467234991928 0.7406922291088611 0.0
0.8154056325591208 0.7211774015928547 0.0
0.6676178829014909 0.8152713180209475 0.0
0.4416080359619968 0.674360953773491 0.0
0.489443615375965 0.5654986742123573 0.0
1.076665773779852 0.7387182918829318 0.0
0.250390543112057 0.4877450112830265 0.0
0.5736819937919005 0.5790366884881447 0.0
0.7263706755366466 0.8615301097563091 0.0
0.940143307772686 0.8233944909985552 0.0
0.927065543677544 0.7236459161626674 0.0
0.8744389806957806 0.8609114380468947 0.0
0.336888362650554 0.6081958070931937 0.0
0.2030757334857187 0.4383942902513459 0.0
0.3861483329720647 0.5255533415902591 0.0
0.5621001921466506 0.7923778419149285 0.0
0.6822897332295245 0.7428043323059399 0.0
0.5764061681675353 0.6881266532454204 0.0
1.129195449682892 0.7163224153578123 0.0
0.8157794419559141 0.7831214907157077 0.0
0.3806644703311284 0.6554275822782399 0.0
0.7695737871052837 0.669593045341503 0.0
0.4699375460410929 0.6217118815516158 0.0
0.6830867370872363 0.630350317562806 0.0
1.040416897214502 0.7929392348941093 0.0
0.4604428393605979 0.7321209818568342 0.0
0.8729552856459739 0.7015083313474691 0.0
1.017010765275644 0.7166925631396708 0.0
0.6458785458483771 0.6946878992565794 0.0
0.7733575582969163 0.8941098392103913 0.0
0.4457537579383052 0.5273353624588528 0.0
0.163830623786951 0.3903175742448083 0.0
0.6095823984734953 0.8256600013628639 0.0
0.2618074352614998 0.5435604438425528 0.0
0.6287880420949764 0.5875838132975476 0.0
0.3100402147222924 0.4835410260423071 0.0
0.5422177893302824 0.5343158927797464 0.0
0.9964262112680041 0.8213447667248638 0.0
0.4971609598823845 0.6906859160718212 0.0
0.5740517260168769 0.633982031239429 0.0
0.7423299505107201 0.7218768583704394 0.0
0.767147744476665 0.819658485932403 0.0
0.9427329070375209 0.7774595780066723 0.0
0.8375285793481674 0.8869398470561132 0.0
0.2879426409425497 0.5872676364411625 0.0
0.6797562629663748 0.8647676397847667 0.0
1.171674168522591 0.6949964056806914 0.0
0.5261010885606964 0.6055079299963303 0.0
0.7081534744446967 0.8078672678314597 0.0
0.9681672688626206 0.705385299758921 0.0
0.7364069054947873 0.6432919177737106 0.0
0.363826821075015 0.5678764295233764 0.0
0.826170216989844 0.6605791783255148 0.0
0.1284439337099834 0.3602715082199688 0.0
0.518140828090112 0.783905985497134 0.0
0.8452908336054504 0.8167586152211004 0.0
0.2015204468558833 0.492088055688788 0.0
0.4005883523205732 0.7121294304856254 0.0
0.3551392316798573 0.4864133323669936 0.0
0.2501727034998737 0.4443035857235296 0.0
0.857938396055507 0.7390317828783199 0.0
0.9245301815433076 0.8668102132501951 0.0
0.5702050292970205 0.7323438487067678 0.0
1.111607633075016 0.759318252473435 0.0
0.6317193755596126 0.7853891653733797 0.0
0.7921381265818805 0.7497379312370454 0.0
1.088942426366261 0.7015435214091311 0.0
0.5818207607488639 0.5352340257544296 0.0
0.4203532416309484 0.6369649631143086 0.0
0.4854818714173937 0.5131439318707094 0.0
0.4475429831528036 0.5690430472086269 0.0
0.8968753306595262 0.8225547516037004 0.0
0.6339557898063448 0.8543470494763272 0.0
0.3416564411796998 0.6516449771136894 0.0
1.082970576264455 0.7856036465430698 0.0
0.2255204648032354 0.5229464838393291 0.0
0.7335043541589261 0.9012744999286941 0.0
0.9097052989734319 0.6921177492721042 0.0
0.5363428275528405 0.6992389299864537 0.0
0.9657777897300287 0.8588269742066746 0.0
1.025947476617909 0.7556651119714124 0.0
0.1090829970454354 0.3226173037985549 0.0
0.4836644525169279 0.7663103281018557 0.0
0.6910856326166581 0.777867529208468 0.0
0.6694391877434097 0.5946719355048008 0.0
0.2954883530575775 0.4501042133334518 0.0
0.6746032498128595 0.6643957640016517 0.0
1.054636636429828 0.6974583960183274 0.0
0.8939255235163368 0.7470597914537064 0.0
0.3749741568555516 0.6190655430398917 0.0
1.204101441114554 0.6801433534918062 0.0
0.6130053345415899 0.6785345531932346 0.0
0.7679719108452487 0.8562682874000032 0.0
0.9710820219997449 0.8008372590855476 0.0
0.1608022352294362 0.4242591696906621 0.0
0.2865399820604418 0.5141369963640697 0.0
0.1962258775846918 0.4008383427744516 0.0
0.6210920174972845 0.5516143721732873 0.0
0.4843009180093644 0.6583977883024127 0.0
0.5695029195102991 0.8267073580550881 0.0
0.9562891163300477 0.7436031251145003 0.0
0.4174190173896447 0.5044019081507806 0.0
0.410860431802698 0.5535781448116232 0.0
0.8709320861791604 0.9002602580953145 0.0
0.427354757192076 0.7399041791280969 0.0
0.7107884943357746 0.7172753954970394 0.0
1.030382288537246 0.8267335242583146 0.0
0.7737440530215844 0.7115751739064536 0.0
0.8042035044852396 0.9123190309183211 0.0
0.0480920891272324 0.2181807374272496 0.0
0.3695079235280397 0.6886893012630373 0.0
0.773516204411121 0.7830673827025234 0.0
0.302776671534508 0.6210168062901616 0.0
0.7150573728414059 0.6149413270404035 0.0
0.5863276441271683 0.769748656022605 0.0
1.143752049005473 0.6780480059671409 0.0
0.6477132714923303 0.7318578097016951 0.0
0.8380052680878572 0.8531154611905379 0.0
0.5966224054445893 0.6051703156405629 0.0
0.3207240819522855 0.5772784374275386 0.0
0.3520131451607586 0.5263918604440553 0.0
0.8573528491808811 0.6709738722470224 0.0
0.1797236573643203 0.460867988842514 0.0
0.5540828191547277 0.6661566975721369 0.0
1.158039843450239 0.7357536542887966 0.0
0.08638006908591334 0.286237566592474 0.0
0.790861820497242 0.6466611559014377 0.0
0.5362079962218838 0.8121454698907893 0.0
0.9405172130232713 0.6862060282668497 0.0
0.6039359324506977 0.711463595189489 0.0
0.4440093493753478 0.6096873538428137 0.0
0.5500746279087338 0.7620941994763282 0.0
0.2578504496023611 0.5739900063885278 0.0
0.502526452350101 0.6209820553182169 0.0
0.6799833858912959 0.7033681517905728 0.0
0.7183487148906835 0.7518430858176317 0.0
0.8006701240044786 0.8118713608014352 0.0
0.1304684854221093 0.3934039266496895 0.0
1.00789495394612 0.7937868725857601 0.0
0.696960396255943 0.893370944718147 0.0
0.8258315165019564 0.7538365084989149 0.0
0.8462950259502577 0.775614153529746 0.0
0.4082018839227037 0.6749460331934272 0.0
0.7025889307788081 0.8378536687159448 0.0
0.4666676520109517 0.6984557076050861 0.0
[...]
POINT_DATA 531

VECTORS Velocity float
0.0000000000000000 1.0000000000000000 0.0
0.0000000000000000 1.0000000000000000 0.0
2.6381944777664734 -0.9593268769486133 0.0
1.7906293249340604 1.0225490270804320 0.0
0.0000000000000000 1.0000000000000000 0.0
0.0000000000000000 1.0000000000000000 0.0
0.0000000000000000 1.0000000000000000 0.0
0.0000000000000000 1.0000000000000000 0.0
0.0000000000000000 1.0000000000000000 0.0
0.0000000000000000 1.0000000000000000 0.0
0.0000000000000000 1.0000000000000000 0.0
0.0000000000000000 1.0000000000000000 0.0
0.0000000000000000 1.0000000000000000 0.0
0.0000000000000000 1.0000000000000000 0.0
0.0000000000000000 1.0000000000000000 0.0
0.0000000000000000 1.0000000000000000 0.0
0.0000000000000000 1.0000000000000000 0.0
0.0000000000000000 1.0000000000000000 0.0
0.0000000000000000 1.0000000000000000 0.0
0.0000000000000000 1.0000000000000000 0.0
0.0000000000000000 0.0000000000000000 0.0
0.0000000000000000 0.0000000000000000 0.0
0.0000000000000000 0.0000000000000000 0.0
0.0000000000000000 0.0000000000000000 0.0
0.0000000000000000 0.0000000000000000 0.0
0.0000000000000000 0.0000000000000000 0.0
0.0000000000000000 0.0000000000000000 0.0
0.0000000000000000 0.0000000000000000 0.0
0.0000000000000000 0.0000000000000000 0.0
0.0000000000000000 0.0000000000000000 0.0
0.0000000000000000 0.0000000000000000 0.0
0.0000000000000000 0.0000000000000000 0.0
0.0000000000000000 0.0000000000000000 0.0
0.0000000000000000 0.0000000000000000 0.0
0.0000000000000000 0.0000000000000000 0.0
0.0000000000000000 0.0000000000000000 0.0
0.0000000000000000 0.0000000000000000 0.0
0.0000000000000000 0.0000000000000000 0.0
0.0000000000000000 0.0000000000000000 0.0
2.6783026971174038 -1.7943076178798099 0.0
3.6706676390507385 -2.3036156282807134 0.0
3.7614675608568371 -2.2270577627845469 0.0
3.7624893208645274 -1.9756697034188362 0.0
3.8564941420962220 -1.7640965262673716 0.0
3.9667762829641453 -1.4691699400355365 0.0
4.0340521301812275 -1.3230242246929200 0.0
4.1741026096382656 -1.1048711885834610 0.0
4.1804654018074228 -0.8209371340478038 0.0
4.1754279729699819 -0.5603527660900985 0.0
4.0512495696810635 -0.2661091943102233 0.0
3.8322533261161582 0.0354237105955657 0.0
3.6377626191916241 0.2702336476927650 0.0
3.2639821423114723 0.5261058266687789 0.0
2.6225426857251124 1.0868055601186462 0.0
1.7635667294732036 0.9336809185079054 0.0
0.0000000000000000 0.0000000000000000 0.0
0.0000000000000000 0.0000000000000000 0.0
0.0000000000000000 0.0000000000000000 0.0
0.0000000000000000 0.0000000000000000 0.0
0.0000000000000000 0.0000000000000000 0.0
0.0000000000000000 0.0000000000000000 0.0
0.0000000000000000 0.0000000000000000 0.0
0.0000000000000000 0.0000000000000000 0.0
0.0000000000000000 0.0000000000000000 0.0
0.0000000000000000 0.0000000000000000 0.0
0.0000000000000000 0.0000000000000000 0.0
0.0000000000000000 0.0000000000000000 0.0
0.0000000000000000 0.0000000000000000 0.0
0.0000000000000000 0.0000000000000000 0.0
0.0000000000000000 0.0000000000000000 0.0
0.0000000000000000 0.0000000000000000 0.0
0.0000000000000000 0.0000000000000000 0.0
0.0000000000000000 0.0000000000000000 0.0
0.0000000000000000 0.0000000000000000 0.0
0.0000000000000000 0.0000000000000000 0.0
0.0000000000000000 0.0000000000000000 0.0
0.0000000000000000 0.0000000000000000 0.0
0.0000000000000000 0.0000000000000000 0.0
0.0000000000000000 0.0000000000000000 0.0
0.0000000000000000 0.0000000000000000 0.0
0.0000000000000000 0.0000000000000000 0.0
0.0000000000000000 0.0000000000000000 0.0
0.0000000000000000 0.0000000000000000 0.0
4.0070806701957569 2.6022562903474045 0.0
4.2969204355115700 2.1776549785552688 0.0
3.9032193781916296 1.1924108134173452 0.0
3.8310135636039977 2.2045487540739295 0.0
3.8211202260011703 2.9198604993978332 0.0
3.4160047802590197 0.0643199634865476 0.0
3.9089200117349012 3.4759559385476533 0.0
3.7883497263521355 2.4474291257205176 0.0
3.7637612792237420 1.9807066661403976 0.0
3.5802998476323578 1.7465509477035301 0.0
2.8338625324259072 1.7911085616216325 0.0
3.3349942415871836 1.3887523094432981 0.0
3.2093979095332283 1.6706112873244767 0.0
3.1602060845772724 2.3412533871160144 0.0
3.2698984519882193 2.5130268862772818 0.0
3.0140748194164262 -0.5057446556210076 0.0
3.6099428362612382 3.8487430631761144 0.0
2.5044411369837407 2.1144944339988783 0.0
2.9084708620387225 1.4122433984616827 0.0
3.9395258571232126 0.5351015600410068 0.0
2.2985409097576501 0.3625080432626142 0.0
3.7062412924851049 1.2378274542464878 0.0
2.7984770216592070 2.6297087254299885 0.0
3.4916569129606589 4.5880300460765921 0.0
3.6328186206774933 2.6433054661064297 0.0
2.2453348407252327 1.3198853708475018 0.0
4.3408757844004011 2.3629755765915537 0.0
4.0267382682308783 2.5808286656458423 0.0
2.8487614831074697 -0.7946569715070910 0.0
4.1182394501592974 1.8339038613922232 0.0
2.5149315259533340 2.0312161587328550 0.0
2.5335177704544827 1.0727289109590510 0.0
3.9372256804230643 2.7323275331673869 0.0
2.7146414313332317 1.3465131768651366 0.0
3.8244769458653258 -0.4445057609832301 0.0
1.9686372550041487 1.4312673492874075 0.0
2.2054626067063312 0.6102654163898352 0.0
2.0705319334525054 0.0352029052886215 0.0
4.1804878667546710 2.4832944786648974 0.0
2.6149637993654795 1.7207117399634406 0.0
2.8025978836264853 2.4562237747510136 0.0
2.9347187389370157 4.7381461108678691 0.0
2.3511183195179215 1.2550316275972129 0.0
2.5249259241046813 2.8795254747318091 0.0
2.1724319067290518 1.6407373618350130 0.0
3.2866032014525528 3.5017959658111635 0.0
1.8113828053089087 1.7688405946659254 0.0
4.0006253980217084 -0.1087908090249351 0.0
3.5042380271770428 2.2626502578079148 0.0
3.8935251659333705 2.5710752754832233 0.0
3.9932845290489922 2.0187987048922302 0.0
4.0593269021393565 2.1291786792919973 0.0
3.6177450769475188 0.4479387469176174 0.0
3.1354297798364574 1.6039869480334097 0.0
1.6449714747660509 1.6764978210234034 0.0
2.2397835069682972 1.0692842693230813 0.0
2.8645582562339746 -1.0492812554455651 0.0
3.7331425242417704 2.5620982186879986 0.0
3.8827007009019301 1.9989611780042291 0.0
1.3971038033508729 0.0706752839247614 0.0
2.0104788480686646 1.0966944143298747 0.0
3.7358682251174140 3.1672798360758310 0.0
1.1015383057897372 0.4418183942174418 0.0
1.8313765766421763 3.2599908922238496 0.0
1.4700510197879701 0.8498450056388692 0.0
4.0006065014559180 1.5956904782704529 0.0
1.8405783160971727 2.2640103562697682 0.0
1.0920667443141814 0.7253350011427029 0.0
2.1238644181641848 2.3894595467136615 0.0
2.7846194911828990 3.3820387611337037 0.0
3.3096259500376415 1.1025721378752673 0.0
3.8523368977195260 0.6485108909130235 0.0
3.5796214150414807 2.2235147562679130 0.0
3.7616789650262477 -1.1324739201327947 0.0
3.2834915907097701 1.7717084927645328 0.0
4.0202785041986093 1.8166880422385021 0.0
1.6359402106663834 -0.3351719056995631 0.0
1.4062653644292400 1.5075758089454918 0.0
3.4478291498064766 2.5912166944856456 0.0
1.2839662035127148 1.8026243769622465 0.0
3.6044333476547714 2.7489317326750835 0.0
3.9454688119237589 1.0928486856678858 0.0
1.4599783332731875 0.7741866559377626 0.0
1.3689075649963269 1.3052198811366982 0.0
3.9175937370630827 -0.9420537521287675 0.0
1.8248640434810863 1.8424608690937039 0.0
1.5114586183059258 0.8507400426685003 0.0
1.2316549455704289 0.1572482121392134 0.0
3.7169664351685481 2.3540536548542681 0.0
4.0485891903518478 0.1401638556163045 0.0
3.1284541985817071 -0.3228724406093723 0.0
1.5934210414339525 3.1018864117870351 0.0
1.1865276947719647 1.0049866993330350 0.0
4.1075814659072973 2.1627763345044229 0.0
1.3164932617805580 0.7944773685250621 0.0
1.5297448001477933 2.7802248556069791 0.0
3.6796546729390576 2.1007043039500992 0.0
1.3204724321418742 -0.2706691491709572 0.0
3.3001538727861290 0.8007650878651147 0.0
3.1583271410740723 2.4939376813929850 0.0
2.6857341545202029 -1.4078802421674261 0.0
4.1027446107995997 2.6146672451245192 0.0
3.4412899615360848 1.9791496984209691 0.0
3.8151788839453804 0.2068730409192178 0.0
2.0000847359464125 3.0560389137478219 0.0
3.6271397037260060 3.6727882207983824 0.0
2.4430286847507632 4.0338084235453522 0.0
0.8444527597015358 0.7999236138587560 0.0
3.7682609679328469 2.5472606036966559 0.0
1.0590139132983074 0.5598728770764854 0.0
2.8259613133534476 0.2437176186700481 0.0
2.1219792064428766 2.2105789177621675 0.0
3.5974364478204301 2.8411095216254205 0.0
3.1443421806464023 1.0501832886217832 0.0
0.8259953998638256 0.5928499853245675 0.0
4.1567359072025960 2.0691262109353010 0.0
4.1346407607683755 -0.4741579366931769 0.0
3.5474503875954664 1.6517919296622141 0.0
2.3002296315351280 1.5864219974389928 0.0
0.7641786049936429 3.4574472034737918 0.0
0.9861069678674059 0.8470453155566636 0.0
4.2486313851057922 2.0515835402178806 0.0
1.3045770013104696 1.0400272887029378 0.0
1.2226879992909689 0.4764157444981605 0.0
3.1182444679521857 1.8450876581638302 0.0
1.4051611134808211 -0.2955851750100983 0.0
4.2692287839896688 2.4566082561614944 0.0
3.7545726001148911 1.6990110098911901 0.0
3.1705057475701670 2.2117657496705685 0.0
2.8935155228517502 2.9984292167105711 0.0
3.9322200376022445 3.2623126658013288 0.0
0.9401022580507488 0.2977212905200836 0.0
1.7262047815755823 2.4100881027457111 0.0
4.0737744730247440 2.5460218197858868 0.0
3.6905036381355605 -1.4061165028124483 0.0
1.2131529002472308 3.3076045994768619 0.0
1.1539170437819981 0.4744161929203542 0.0
0.9432324207682558 0.3761687448896374 0.0
0.8810644420249971 0.0529115288524109 0.0
4.1234716616351355 2.4669751529812869 0.0
3.8381713449075958 2.8498530954738657 0.0
2.7444777634132849 1.6122325962460990 0.0
1.0306218344676767 1.4839265816384799 0.0
3.9666614308826742 2.6529897457765061 0.0
4.1658810018698480 2.3717927833225594 0.0
4.3043450588639987 2.2336955951772568 0.0
4.0935242829109608 1.9659699183839303 0.0
1.6335546482756322 2.3202442922990594 0.0
3.8002647825712499 -0.1840589379382647 0.0
1.2161569048813965 0.6139163660851960 0.0
3.8462752646983360 1.5574972098863236 0.0
3.9364794194312922 1.4384321795298838 0.0
2.5572736288207363 1.7502530627031627 0.0
3.0722757893904338 1.5227424989837754 0.0
3.0719037541376255 2.0776754892392142 0.0
3.0697761591778572 1.9390270938989922 0.0
3.3503359663185064 1.7826256100304299 0.0
3.9967356019922713 2.2710337735989912 0.0
1.0326846763392639 0.1409708556518964 0.0
2.8673718375558992 2.1275532583976116 0.0
2.3840814593702384 0.8508913539951978 0.0
2.7323693551271218 1.9809173472553245 0.0
2.3943044351848495 -0.0511567097100745 0.0
4.1568622074434298 -0.7802712708150323 0.0
0.9397486541447569 0.9564357453528909 0.0
2.3130204421423022 -1.0760470430303828 0.0
4.0889307343342800 2.5932477628507695 0.0
2.8432703554033982 1.4333683585205066 0.0
3.1370256151464915 1.8770244167478323 0.0
3.4917991604244292 3.9779213458367861 0.0
0.5213568521176198 1.6424444813234713 0.0
3.7525831227383137 2.7551255499792648 0.0
1.5511313159512583 1.8409399481869384 0.0
2.9083216430214520 -0.7053022120906728 0.0
3.7709078482982097 0.8298379756234560 0.0
3.6313100066927708 2.4726038114300275 0.0
0.6291507458627991 0.4965546971193195 0.0
1.2013233773102043 2.2394530004887070 0.0
3.1057422297839996 2.7505688672703497 0.0
1.7179612401897519 2.9227260619172477 0.0
1.0193126035315436 1.8920781357103102 0.0
0.8130145394486094 1.5837115093301586 0.0
1.6637014704587321 3.0813960098543416 0.0
1.4431764749085192 1.1838531163564212 0.0
2.1903484232225630 -1.4148472368568912 0.0
2.1117151059661490 1.5660501005997149 0.0
0.6592877689122835 0.2919110118243137 0.0
0.7638183754669017 0.5773809899397532 0.0
3.9215427196655850 3.4615491159062541 0.0
1.2599133808005953 -0.0787852111340278 0.0
3.4205115678117664 0.8329853354900774 0.0
4.1247152090288761 -0.1930108415317433 0.0
3.9095584292161778 2.4056676702348794 0.0
1.1250736282498512 3.3292141702794091 0.0
2.4758339301038639 0.6904720575271652 0.0
0.5892095947715301 0.3542557114014559 0.0
3.4531951700266181 -0.4992123657134069 0.0
3.6905365993273445 2.6434272783034718 0.0
0.7364943133553047 -0.0168579801601546 0.0
2.5678063884922433 -0.2777603138640541 0.0
2.6364725199575449 1.4182203159665387 0.0
3.6934038350685165 -1.7367508559020821 0.0
0.7830026769886466 0.1049822034910997 0.0
2.4083276310019639 1.5282665543938769 0.0
2.8549001870725235 2.4219782683425999 0.0
2.2148337122896318 1.9614492860458452 0.0
3.9224071485657088 2.5269184590693983 0.0
3.7751423403114104 1.9525754419971535 0.0
2.4827453851044230 1.1065586365668016 0.0
3.7093798239335012 3.7863985141562799 0.0
4.1914094730704443 2.1474731842888444 0.0
0.9325301175561354 0.5972931808625153 0.0
3.1439291556263416 3.2360165785407320 0.0
2.7158158171159172 1.6790228862408512 0.0
4.2228928577034770 2.2274216135822007 0.0
4.1389213544155821 2.0538373426593077 0.0
3.1099523490872687 2.1902937080051279 0.0
3.7445219570294355 2.5827338401070303 0.0
1.2603748720005257 -0.7699462230330569 0.0
3.2608108636546969 0.6430437199412848 0.0
4.0144788781131178 0.1255849524376289 0.0
1.6698189000395203 4.0683864698611503 0.0
2.2533435837591522 1.8642764738427680 0.0
0.7054026539819631 0.6015092587428010 0.0
4.0133716136806523 2.5974135064688579 0.0
4.2941464974574037 2.1820717409800796 0.0
3.9033750410137227 1.1990035014981737 0.0
3.8206648500877445 2.1984457876690553 0.0
3.8236397016575392 2.9150551804618741 0.0
3.4161900828634177 0.0667146505893411 0.0
3.9096179773656994 3.4745274015476202 0.0
3.8011743280424750 2.4538776641963058 0.0
3.7531985370528771 1.9855187735372113 0.0
3.5939931939812344 1.7553505672981975 0.0
2.8219933211459236 1.7806670788339722 0.0
3.3445911812626692 1.3965774338124617 0.0
3.1942494011155897 1.6649986790794027 0.0
3.1555598861739869 2.3310853904463373 0.0
3.2797556134196135 2.5105810522925287 0.0
3.0140606402414400 -0.5057929110604880 0.0
3.6098532337854250 3.8489427010441122 0.0
2.5170301847823802 2.1179137056823274 0.0
2.8952630646078470 1.4098358132449524 0.0
3.9373198617248031 0.5387020398171805 0.0
2.3018824662738524 0.3653843119541493 0.0
3.6998631102545807 1.2411966257587594 0.0
2.7982712444967883 2.6269190337596942 0.0
3.4916011271682832 4.5880888676074880 0.0
3.6351685331246775 2.6420665815327591 0.0
2.2314570015895603 1.3117503580915486 0.0
4.3405578989558800 2.3648639726605114 0.0
4.0257457097519760 2.5765628387419897 0.0
2.8487323276843259 -0.7947205627667756 0.0
4.1169979964048142 1.8420527569734777 0.0
2.5123553418085192 2.0257775160654741 0.0
2.5463802353650662 1.0793232572951315 0.0
3.9419440050719348 2.7249654797182146 0.0
2.7300261390713194 1.3544923940644402 0.0
3.8245552665769695 -0.4441169580203284 0.0
1.9596557903061660 1.4230428254505285 0.0
2.2126187986784651 0.6135944762638467 0.0
2.0707342567556211 0.0358124764187801 0.0
4.1869429378787038 2.4873844243887970 0.0
2.6052040917877068 1.7204805255459237 0.0
2.8082563224141359 2.4555226859747590 0.0
2.9347131547044771 4.7381531452273453 0.0
2.3372335659114598 1.2478620816301502 0.0
2.5251919200357880 2.8796538967369423 0.0
2.1853084154033606 1.6490599761644085 0.0
3.2865257560836971 3.5015205682969484 0.0
1.8211089998095238 1.7699419152507565 0.0
3.9998453680847708 -0.1074476303564424 0.0
3.4971929725364994 2.2517960710476324 0.0
3.9044158726045546 2.5715824877079614 0.0
4.0025203065194184 2.0260603401072941 0.0
4.0488173202528444 2.1322472494995370 0.0
3.6175087446199381 0.4517618749189580 0.0
3.1292931197946632 1.6057324196292604 0.0
1.6450883856903988 1.6761072220862332 0.0
2.2266838467202521 1.0646305084596517 0.0
2.8645483887725325 -1.0493187750893564 0.0
3.7434070521108049 2.5603929185358587 0.0
3.8694892895472526 1.9962676856458095 0.0
1.3985930156275208 0.0721573382159896 0.0
2.0227599418439199 1.1033340554472464 0.0
3.7372749864082206 3.1643870183269924 0.0
1.1083920915298158 0.4449238703856246 0.0
1.8313759561099148 3.2599921232791229 0.0
1.4602494337422554 0.8433698527856073 0.0
3.9951189340531355 1.6020738372959462 0.0
1.8406117503255941 2.2641865865165376 0.0
1.0881938159122522 0.7215132146409534 0.0
2.1245990507250698 2.3889635618290974 0.0
2.7843966045573123 3.3820581291354941 0.0
3.3152794064130662 1.1093548817137096 0.0
3.8492861629340283 0.6507408208204876 0.0
3.5697592028088998 2.2145987466634018 0.0
3.7617420175048797 -1.1326001000835730 0.0
3.2686048347762604 1.7646921078304409 0.0
4.0254372190096062 1.8246716784387778 0.0
1.6358019871939384 -0.3352410323500510 0.0
1.4145863387817472 1.5107064921607991 0.0
3.4471463690228141 2.5840892714954506 0.0
1.2890926440891142 1.8027383827480854 0.0
3.6104929037098743 2.7451580037081169 0.0
3.9418343060748988 1.0983224982310276 0.0
1.4495420664692735 0.7691526920101577 0.0
1.3676416794080637 1.3027357860584774 0.0
3.9177410226495080 -0.9421350586047554 0.0
1.8249864536463232 1.8426938291630393 0.0
1.5041649068415017 0.8495499940626757 0.0
1.2350401517476819 0.1591426008516405 0.0
3.7098989900675283 2.3453168985010535 0.0
4.0472110536776587 0.1413369289770423 0.0
3.1286014403949394 -0.3219256586005763 0.0
1.5934213386535270 3.1018860823815979 0.0
1.1783788558320460 0.9975322139121104 0.0
4.0976771710838431 2.1611302323826780 0.0
1.3268989168466101 0.8004556924670676 0.0
1.5294755984323716 2.7801474951348486 0.0
3.6938862056352941 2.1088032041446536 0.0
1.3203264935781340 -0.2705882880322406 0.0
3.3026708286723565 0.8063706668012717 0.0
3.1582911611027367 2.4887102997167649 0.0
2.6857342434280436 -1.4078801380613957 0.0
4.1090379012898728 2.6169271277914756 0.0
3.4286154127665522 1.9797581925311987 0.0
3.8143735905494975 0.2093372437319049 0.0
2.0000742970729135 3.0560658156640730 0.0
3.6272583741476412 3.6725477132609989 0.0
2.4430002505808308 4.0338198814117208 0.0
0.8511223036299924 0.8050779256838800 0.0
3.7673966379290378 2.5376397239441011 0.0
1.0501996831281946 0.5553384124303575 0.0
2.8274639235724250 0.2465113340243575 0.0
2.1248980840653937 2.2102125533424521 0.0
3.6015575098667774 2.8383217593574233 0.0
3.1403343297810542 1.0518420133633271 0.0
0.8213754160295063 0.5887320777618235 0.0
4.1651663734369091 2.0758327704754351 0.0
4.1345147268328839 -0.4738168194430072 0.0
3.5586389458790322 1.6599969283088429 0.0
2.2952351696302986 1.5867430373453122 0.0
0.7641786049936430 3.4574472034737922 0.0
0.9836671213860927 0.8438360271893350 0.0
4.2453689011018128 2.0577507897959113 0.0
1.3044217652090480 1.0392381631919485 0.0
1.2329427525691206 0.4809925089736060 0.0
3.1034946791304785 1.8365027478925491 0.0
1.4051159629758412 -0.2955970589721850 0.0
4.2679891786094952 2.4569875139972961 0.0
3.7456482253433285 1.7026426332137228 0.0
3.1848033867824022 2.2175200526030250 0.0
2.8935225027313134 2.9966067733786894 0.0
3.9336475756825493 3.2610686853377930 0.0
0.9452523137123957 0.2997717132919176 0.0
1.7262042807379654 2.4101652820028026 0.0
4.0766459904316319 2.5418244702506865 0.0
3.6905171295084580 -1.4061831257764592 0.0
1.2131529734557642 3.3076046045262473 0.0
1.1620706989870475 0.4781877795232204 0.0
0.9346231852253314 0.3723434108900351 0.0
0.8832955477547135 0.0537823001759319 0.0
4.1214618600585213 2.4636470519031124 0.0
3.8420395296716676 2.8428248845762534 0.0
2.7307848069605334 1.6028623743395158 0.0
1.0308110175055463 1.4839459288884644 0.0
3.9729079128904603 2.6465763752934865 0.0
4.1738587664752398 2.3775776952582728 0.0
4.3052470595894645 2.2374368315094655 0.0
4.0856851394415425 1.9720923108807971 0.0
1.6335521416633045 2.3202476327076287 0.0
3.8001274485019065 -0.1825949011299870 0.0
1.2087818621383115 0.6111721120273438 0.0
3.8505670147987576 1.5656309292267327 0.0
3.9367092343819787 1.4469774067419345 0.0
2.5533033524481410 1.7437653182703889 0.0
3.0577319723016627 1.5198071515837122 0.0
3.0645643302858878 2.0673626703945662 0.0
3.0854574792553233 1.9479427338543105 0.0
3.3642243466777950 1.7907087627476472 0.0
3.9857927925034198 2.2676425898603778 0.0
1.0332252553209020 0.1413949246991417 0.0
2.8797239583479572 2.1273889263882073 0.0
2.3932667329459059 0.8566113279056002 0.0
2.7221131060594006 1.9708233920022888 0.0
2.3951681179781863 -0.0494819683921588 0.0
4.1569839879868260 -0.7802729554503065 0.0
0.9399131681808796 0.9566319468480783 0.0
2.3130214762721986 -1.0760457340333502 0.0