# vtk DataFile Version 3.0
LucasCarvalhoTCC Results
ASCII

DATASET POLYDATA
FIELD FieldData 1
TIME 1 1 double
5.9

POINTS 531 float
0.02430399999999999 0.16425 0.0
0.5913384 0.481878 0.0
1.30475 0.591832 0.0
0.774126 0.951272 0.0
0.04779564148251592 0.1966194329439859 0.0
0.0726092153537953 0.2279866320496896 0.0
0.09876577335895967 0.2582426022760065 0.0
0.1262817198684718 0.2872673048853742 0.0
0.1551671626852806 0.3149288071400502 0.0
0.1854238368919928 0.3410826624766006 0.0
0.2170424591499632 0.3655716640299072 0.0
0.2499995164635996 0.3882263409476824 0.0
0.2842534387828506 0.4088665906889567 0.0
0.3197403359862048 0.4273050841371062 0.0
0.3563695945475563 0.4433531534921038 0.0
0.3940201673622058 0.4568300511916809 0.0
0.4325386107291805 0.4675762214989666 0.0
0.4717406913237268 0.4754709112408955 0.0
0.5114182513144845 0.480453442081874 0.0
0.5513531678859215 0.4825464217651069 0.0
0.6182637923774223 0.5096055604109244 0.0
0.647389101376845 0.5350126187545199 0.0
0.6784752958296183 0.5579802184492302 0.0
0.7112421079139344 0.5784810076698811 0.0
0.7454110434104482 0.5965507527581431 0.0
0.7807301979183381 0.6122562812860965 0.0
0.8169827939052532 0.6256694297140926 0.0
0.853985522124928 0.6368498290413532 0.0
0.8915818964261243 0.6458353363890481 0.0
0.9296339776508085 0.6526379336565091 0.0
0.9680139759519513 0.6572432424840469 0.0
1.006596418266983 0.659612648128084 0.0
1.045251165872634 0.6596877658251245 0.0
1.083837680945672 0.657397570658483 0.0
1.122201320191055 0.6526688455666412 0.0
1.160173053543044 0.6454405726452737 0.0
1.197574286953346 0.6356824063786186 0.0
1.23422961949795 0.6234159704281613 0.0
1.26998758503999 0.6087366500005643 0.0
1.285086682927543 0.6256533177085738 0.0
1.263669745906668 0.6583917156018083 0.0
1.240480125919214 0.6898988493917133 0.0
1.215532715641304 0.7200329197235763 0.0
1.188869833862339 0.7486599839005789 0.0
1.160556835593143 0.7756559317113654 0.0
1.130680194163798 0.8009104211039757 0.0
1.099347083827048 0.8243335727704395 0.0
1.066684425336412 0.8458643604021228 0.0
1.03283497048792 0.8654772531176074 0.0
0.9979492572630678 0.8831824104874066 0.0
0.9621749986495024 0.8990166556695112 0.0
0.9256475378616493 0.9130272060048579 0.0
0.8884846540507749 0.9252538945090274 0.0
0.8507866567183312 0.935715378288671 0.0
0.8126405010322847 0.9444016349017643 0.0
0.7365055179612304 0.9396161853607135 0.0
0.699310855231089 0.9266666891603924 0.0
0.6626179171945521 0.9123577070090924 0.0
0.6264901449910028 0.8966765244755546 0.0
0.5909789825447118 0.8796450886595113 0.0
0.556124897941028 0.8613059841617771 0.0
0.5219601957009091 0.8417124664434518 0.0
0.4885110616878257 0.8209207172498462 0.0
0.4558007060429968 0.7989848675704875 0.0
0.4238520247653796 0.775953675763176 0.0
0.3926900138417566 0.7518687036338616 0.0
0.3623437622133722 0.7267636709390595 0.0
0.3328479550295906 0.7006647540504483 0.0
0.3042438201183181 0.6735915983461908 0.0
0.2765795358619001 0.6455588748284606 0.0
0.2499101143933102 0.6165781952942546 0.0
0.2242967982692083 0.5866601984136335 0.0
0.1998060807431611 0.5558166834807132 0.0
0.1765083808984156 0.5240625786010467 0.0
0.154476512720734 0.491417660368959 0.0
0.133784033184808 0.457907916333494 0.0
0.114503564227142 0.4235664945146766 0.0
0.09670517293008124 0.3884342245925089 0.0
0.0804548910754031 0.3525597611689231 0.0
0.06581337946329963 0.3159993090744527 0.0
0.05283482490365372 0.2788161107032479 0.0
0.0415660226296666 0.2410796291505872 0.0
0.03204569406625649 0.2028646095712164 0.0
0.5272009874003867 0.6419624505772817 0.0
0.7421848286576707 0.7716726266421574 0.0
0.8789503364783713 0.7829234141383637 0.0
0.6149390992905563 0.7449438030688011 0.0
0.4064556042659638 0.5942834991165423 0.0
0.9875021850865396 0.7666507358101158 0.0
0.3188065960661005 0.539594034984892 0.0
0.61365100263957 0.6399487878797632 0.0
0.8049090660915541 0.8464379870891131 0.0
0.7099820328572021 0.6828840522539854 0.0
0.5239467234991928 0.7406922291088611 0.0
0.8154056325591208 0.7211774015928547 0.0
0.6676178829014909 0.8152713180209475 0.0
0.4416080359619968 0.674360953773491 0.0
0.489443615375965 0.5654986742123573 0.0
1.076665773779852 0.7387182918829318 0.0
0.250390543112057 0.4877450112830265 0.0
0.5736819937919005 0.5790366884881447 0.0
0.7263706755366466 0.8615301097563091 0.0
0.940143307772686 0.8233944909985552 0.0
0.927065543677544 0.7236459161626674 0.0
0.8744389806957806 0.8609114380468947 0.0
0.336888362650554 0.6081958070931937 0.0
0.2030757334857187 0.4383942902513459 0.0
0.3861483329720647 0.5255533415902591 0.0
0.5621001921466506 0.7923778419149285 0.0
0.6822897332295245 0.7428043323059399 0.0
0.5764061681675353 0.6881266532454204 0.0
1.129195449682892 0.7163224153578123 0.0
0.8157794419559141 0.7831214907157077 0.0
0.3806644703311284 0.6554275822782399 0.0
0.7695737871052837 0.669593045341503 0.0
0.4699375460410929 0.6217118815516158 0.0
0.6830867370872363 0.630350317562806 0.0
1.040416897214502 0.7929392348941093 0.0
0.4604428393605979 0.7321209818568342 0.0
0.8729552856459739 0.7015083313474691 0.0
1.017010765275644 0.7166925631396708 0.0
0.6458785458483771 0.6946878992565794 0.0
0.7733575582969163 0.8941098392103913 0.0
0.4457537579383052 0.5273353624588528 0.0
0.163830623786951 0.3903175742448083 0.0
0.6095823984734953 0.8256600013628639 0.0
0.2618074352614998 0.5435604438425528 0.0
0.6287880420949764 0.5875838132975476 0.0
0.3100402147222924 0.4835410260423071 0.0
0.5422177893302824 0.5343158927797464 0.0
0.9964262112680041 0.8213447667248638 0.0
0.4971609598823845 0.6906859160718212 0.0
0.5740517260168769 0.633982031239429 0.0
0.7423299505107201 0.7218768583704394 0.0
0.767147744476665 0.819658485932403 0.0
0.9427329070375209 0.7774595780066723 0.0
0.8375285793481674 0.8869398470561132 0.0
0.2879426409425497 0.5872676364411625 0.0
0.6797562629663748 0.8647676397847667 0.0
1.171674168522591 0.6949964056806914 0.0
0.5261010885606964 0.6055079299963303 0.0
0.7081534744446967 0.8078672678314597 0.0
0.9681672688626206 0.705385299758921 0.0
0.7364069054947873 0.6432919177737106 0.0
0.363826821075015 0.5678764295233764 0.0
0.826170216989844 0.6605791783255148 0.0
0.1284439337099834 0.3602715082199688 0.0
0.518140828090112 0.783905985497134 0.0
0.8452908336054504 0.8167586152211004 0.0
0.2015204468558833 0.492088055688788 0.0
0.4005883523205732 0.7121294304856254 0.0
0.3551392316798573 0.4864133323669936 0.0
0.2501727034998737 0.4443035857235296 0.0
0.857938396055507 0.7390317828783199 0.0
0.9245301815433076 0.8668102132501951 0.0
0.5702050292970205 0.7323438487067678 0.0
1.111607633075016 0.759318252473435 0.0
0.6317193755596126 0.7853891653733797 0.0
0.7921381265818805 0.7497379312370454 0.0
1.088942426366261 0.7015435214091311 0.0
0.5818207607488639 0.5352340257544296 0.0
0.4203532416309484 0.6369649631143086 0.0
0.4854818714173937 0.5131439318707094 0.0
0.4475429831528036 0.5690430472086269 0.0
0.8968753306595262 0.8225547516037004 0.0
0.6339557898063448 0.8543470494763272 0.0
0.3416564411796998 0.6516449771136894 0.0
1.082970576264455 0.7856036465430698 0.0
0.2255204648032354 0.5229464838393291 0.0
0.7335043541589261 0.9012744999286941 0.0
0.9097052989734319 0.6921177492721042 0.0
0.5363428275528405 0.6992389299864537 0.0
0.9657777897300287 0.8588269742066746 0.0
1.025947476617909 0.7556651119714124 0.0
0.1090829970454354 0.3226173037985549 0.0
0.4836644525169279 0.7663103281018557 0.0
0.6910856326166581 0.777867529208468 0.0
0.6694391877434097 0.5946719355048008 0.0
0.2954883530575775 0.4501042133334518 0.0
0.6746032498128595 0.6643957640016517 0.0
1.054636636429828 0.6974583960183274 0.0
0.8939255235163368 0.7470597914537064 0.0
0.3749741568555516 0.6190655430398917 0.0
1.204101441114554 0.6801433534918062 0.0
0.6130053345415899 0.6785345531932346 0.0
0.7679719108452487 0.8562682874000032 0.0
0.9710820219997449 0.8008372590855476 0.0
0.1608022352294362 0.4242591696906621 0.0
0.2865399820604418 0.5141369963640697 0.0
0.1962258775846918 0.4008383427744516 0.0
0.6210920174972845 0.5516143721732873 0.0
0.4843009180093644 0.6583977883024127 0.0
0.5695029195102991 0.8267073580550881 0.0
0.9562891163300477 0.7436031251145003 0.0
0.4174190173896447 0.5044019081507806 0.0
0.410860431802698 0.5535781448116232 0.0
0.8709320861791604 0.9002602580953145 0.0
0.427354757192076 0.7399041791280969 0.0
0.7107884943357746 0.7172753954970394 0.0
1.030382288537246 0.8267335242583146 0.0
0.7737440530215844 0.7115751739064536 0.0
0.8042035044852396 0.9123190309183211 0.0
0.0480920891272324 0.2181807374272496 0.0
0.3695079235280397 0.6886893012630373 0.0
0.773516204411121 0.7830673827025234 0.0
0.302776671534508 0.6210168062901616 0.0
0.7150573728414059 0.6149413270404035 0.0
0.5863276441271683 0.769748656022605 0.0
1.143752049005473 0.6780480059671409 0.0
0.6477132714923303 0.7318578097016951 0.0
0.8380052680878572 0.8531154611905379 0.0
0.5966224054445893 0.6051703156405629 0.0
0.3207240819522855 0.5772784374275386 0.0
0.3520131451607586 0.5263918604440553 0.0
0.8573528491808811 0.6709738722470224 0.0
0.1797236573643203 0.460867988842514 0.0
0.5540828191547277 0.6661566975721369 0.0
1.158039843450239 0.7357536542887966 0.0
0.08638006908591334 0.286237566592474 0.0
0.790861820497242 0.6466611559014377 0.0
0.5362079962218838 0.8121454698907893 0.0
0.9405172130232713 0.6862060282668497 0.0
0.6039359324506977 0.711463595189489 0.0
0.4440093493753478 0.6096873538428137 0.0
0.5500746279087338 0.7620941994763282 0.0
0.2578504496023611 0.5739900063885278 0.0
0.502526452350101 0.6209820553182169 0.0
0.6799833858912959 0.7033681517905728 0.0
0.7183487148906835 0.7518430858176317 0.0
0.8006701240044786 0.8118713608014352 0.0
0.1304684854221093 0.3934039266496895 0.0
1.00789495394612 0.7937868725857601 0.0
0.696960396255943 0.893370944718147 0.0
0.8258315165019564 0.7538365084989149 0.0
0.8462950259502577 0.775614153529746 0.0
0.4082018839227037 0.6749460331934272 0.0
0.7025889307788081 0.8378536687159448 0.0
0.4666676520109517 0.6984557076050861 0.0
[...]
POINT_DATA 531

VECTORS Velocity float
0.0000000000000000 1.0000000000000000 0.0
0.0000000000000000 1.0000000000000000 0.0
2.6381926283061290 -0.9593285798579778 0.0
1.7854363513748901 1.0220170118691161 0.0
0.0000000000000000 1.0000000000000000 0.0
0.0000000000000000 1.0000000000000000 0.0
0.0000000000000000 1.0000000000000000 0.0
0.0000000000000000 1.0000000000000000 0.0
0.0000000000000000 1.0000000000000000 0.0
0.0000000000000000 1.0000000000000000 0.0
0.0000000000000000 1.0000000000000000 0.0
0.0000000000000000 1.0000000000000000 0.0
0.0000000000000000 1.0000000000000000 0.0
0.0000000000000000 1.0000000000000000 0.0
0.0000000000000000 1.0000000000000000 0.0
0.0000000000000000 1.0000000000000000 0.0
0.0000000000000000 1.0000000000000000 0.0
0.0000000000000000 1.0000000000000000 0.0
0.0000000000000000 1.0000000000000000 0.0
0.0000000000000000 1.0000000000000000 0.0
0.0000000000000000 0.0000000000000000 0.0
0.0000000000000000 0.0000000000000000 0.0
0.0000000000000000 0.0000000000000000 0.0
0.0000000000000000 0.0000000000000000 0.0
0.0000000000000000 0.0000000000000000 0.0
0.0000000000000000 0.0000000000000000 0.0
0.0000000000000000 0.0000000000000000 0.0
0.0000000000000000 0.0000000000000000 0.0
0.0000000000000000 0.0000000000000000 0.0
0.0000000000000000 0.0000000000000000 0.0
0.0000000000000000 0.0000000000000000 0.0
0.0000000000000000 0.0000000000000000 0.0
0.0000000000000000 0.0000000000000000 0.0
0.0000000000000000 0.0000000000000000 0.0
0.0000000000000000 0.0000000000000000 0.0
0.0000000000000000 0.0000000000000000 0.0
0.0000000000000000 0.0000000000000000 0.0
0.0000000000000000 0.0000000000000000 0.0
0.0000000000000000 0.0000000000000000 0.0
2.6783017364004382 -1.7943053915918061 0.0
3.6706900124685760 -2.3036293243804522 0.0
3.7614799758389279 -2.2271448547192141 0.0
3.7624326322754751 -1.9755627823696527 0.0
3.8554248701502112 -1.7631860095607124 0.0
3.9630513265716409 -1.4663513376945623 0.0
4.0275048438428351 -1.3173349691297822 0.0
4.1617318726828962 -1.0964249834915674 0.0
4.1584358875946590 -0.8079007778630003 0.0
4.1480789521347301 -0.5454107949096941 0.0
4.0196174560098044 -0.2511317351527078 0.0
3.7995285274748642 0.0487545135699349 0.0
3.6072223439207076 0.2820722247436127 0.0
3.2392347534331312 0.5342702537253381 0.0
2.6071749006499441 1.0881760583188480 0.0
1.7580025054009558 0.9378799421028456 0.0
0.0000000000000000 0.0000000000000000 0.0
0.0000000000000000 0.0000000000000000 0.0
0.0000000000000000 0.0000000000000000 0.0
0.0000000000000000 0.0000000000000000 0.0
0.0000000000000000 0.0000000000000000 0.0
0.0000000000000000 0.0000000000000000 0.0
0.0000000000000000 0.0000000000000000 0.0
0.0000000000000000 0.0000000000000000 0.0
0.0000000000000000 0.0000000000000000 0.0
0.0000000000000000 0.0000000000000000 0.0
0.0000000000000000 0.0000000000000000 0.0
0.0000000000000000 0.0000000000000000 0.0
0.0000000000000000 0.0000000000000000 0.0
0.0000000000000000 0.0000000000000000 0.0
0.0000000000000000 0.0000000000000000 0.0
0.0000000000000000 0.0000000000000000 0.0
0.0000000000000000 0.0000000000000000 0.0
0.0000000000000000 0.0000000000000000 0.0
0.0000000000000000 0.0000000000000000 0.0
0.0000000000000000 0.0000000000000000 0.0
0.0000000000000000 0.0000000000000000 0.0
0.0000000000000000 0.0000000000000000 0.0
0.0000000000000000 0.0000000000000000 0.0
0.0000000000000000 0.0000000000000000 0.0
0.0000000000000000 0.0000000000000000 0.0
0.0000000000000000 0.0000000000000000 0.0
0.0000000000000000 0.0000000000000000 0.0
0.0000000000000000 0.0000000000000000 0.0
3.9993484329565887 2.6034315270440462 0.0
4.2959255422635634 2.1604862582424511 0.0
3.9094026287508257 1.1854011698703526 0.0
3.8340970354109665 2.2062033716145764 0.0
3.8199194321989287 2.9204900726751331 0.0
3.4299924942640665 0.0737955934611158 0.0
3.9085946311557724 3.4766463502005740 0.0
3.7793055356017180 2.4460232975257812 0.0
3.7557712481258028 1.9638017137719836 0.0
3.5768143713487861 1.7397567885216325 0.0
2.8394252145566452 1.7983728364775775 0.0
3.3477724506548170 1.3809437959548150 0.0
3.2173402284328216 1.6702481214326017 0.0
3.1610184378156556 2.3449404257722550 0.0
3.2682236052176385 2.5116028214639492 0.0
3.0206680983393364 -0.5002055571002396 0.0
3.6099263635236296 3.8487609957383762 0.0
2.5025767351720263 2.1148713113892876 0.0
2.9120463187017891 1.4081996049050425 0.0
3.9297918292575367 0.5394530687690218 0.0
2.3223773323134353 0.3656990480852446 0.0
3.6891406089034833 1.2323771242424231 0.0
2.7987884736403892 2.6309386607260983 0.0
3.4916753146569097 4.5880145554167013 0.0
3.6318692671100736 2.6434151835082753 0.0
2.2548459321536405 1.3257667865611740 0.0
4.3384552234149938 2.3541887761060134 0.0
4.0213798372256351 2.5826805251673139 0.0
2.8514043776681675 -0.7935135794029220 0.0
4.1192705431389678 1.8172799499134531 0.0
2.5159463280138441 2.0332925437705165 0.0
2.5375595080131474 1.0692245334511730 0.0
3.9328680069394530 2.7325080132238098 0.0
2.7097238592786161 1.3447392992619440 0.0
3.8241128972072391 -0.4310561752165894 0.0
1.9730851261607969 1.4358575257565114 0.0
2.2255798414324439 0.6125928778188517 0.0
2.0849055245405972 0.0397317883920826 0.0
4.1735677288307853 2.4790263749605694 0.0
2.6127732093641733 1.7147650723673660 0.0
2.8016014376866982 2.4556567441700889 0.0
2.9347215564512736 4.7381437882349866 0.0
2.3603407415027804 1.2598177965033053 0.0
2.5248609838403806 2.8796499257839216 0.0
2.1698385374886957 1.6407410482632563 0.0
3.2864407990687572 3.5019071183576975 0.0
1.8119737850411934 1.7688280341922127 0.0
3.9894961209734952 -0.0946656335888034 0.0
3.5045026225516187 2.2684245436041648 0.0
3.8842137621902704 2.5711153848710899 0.0
3.9934941448895813 2.0052125840843513 0.0
4.0555765441531273 2.1121858425460229 0.0
3.6282170160847720 0.4537034766990602 0.0
3.1194401506257696 1.5967401464886291 0.0
1.6450735083595405 1.6768359941508060 0.0
2.2474907720529771 1.0704678415136910 0.0
2.8653044886779888 -1.0482568323294736 0.0
3.7274420680767655 2.5615245612606250 0.0
3.8858851820372213 1.9914428069750838 0.0
1.4133204617300097 0.0737795816533118 0.0
2.0094780978445987 1.0926891677268153 0.0
3.7353668761951551 3.1681019216531783 0.0
1.1085357211759455 0.4425478907706658 0.0
1.8313767573555149 3.2599903632096652 0.0
1.4758355545219988 0.8542202470806890 0.0
3.9938058464375836 1.5828436487632978 0.0
1.8405682009107012 2.2639726091396559 0.0
1.0936937732612524 0.7270234573181198 0.0
2.1233730358852161 2.3895973517501607 0.0
2.7846599115708521 3.3820477391930606 0.0
3.3275460671953829 1.0984688425979878 0.0
3.8275774229734547 0.6532705494501158 0.0
3.5821577472588051 2.2289459172370512 0.0
3.7619681189629346 -1.1275761801444246 0.0
3.2919324802171643 1.7745496494039070 0.0
4.0252727785360847 1.8015587138133400 0.0
1.6400760805020465 -0.3338998749759154 0.0
1.4065569968440685 1.5079166408796170 0.0
3.4473528536826241 2.5931994134649083 0.0
1.2838239331941741 1.8022187090714019 0.0
3.6027739924275219 2.7480921734709804 0.0
3.9352372851486184 1.0881660505628887 0.0
1.4662758588113860 0.7770822944480407 0.0
1.3694966390634700 1.3062700506947833 0.0
3.9159154523410225 -0.9307001447424746 0.0
1.8248278199101509 1.8424458693249353 0.0
1.5129476343945567 0.8486605979656906 0.0
1.2472252046729884 0.1578099692825042 0.0
3.7163280717874585 2.3591348756227570 0.0
4.0214421096367312 0.1518808035968982 0.0
3.1406033173357324 -0.3122271601574199 0.0
1.5934209133740069 3.1018865583141264 0.0
1.1906305119214524 1.0093299921483225 0.0
4.1100324007795921 2.1549843879577488 0.0
1.3141297492330151 0.7937260335364601 0.0
1.5297514590817149 2.7802449183221816 0.0
3.6727082352849973 2.0960353436126193 0.0
1.3267461218268826 -0.2687467886926833 0.0
3.3204489462118914 0.8004482779863534 0.0
3.1585018389938679 2.4957247844193335 0.0
2.6858220754691797 -1.4077176941737688 0.0
4.0944035484002148 2.6122696972703601 0.0
3.4389512450184996 1.9671606418329308 0.0
3.8162056206158708 0.2159992706739924 0.0
2.0000887444882522 3.0560283746314085 0.0
3.6269828157902468 3.6730338700578367 0.0
2.4430405739659573 4.0338040084847275 0.0
0.8439981913043773 0.8002227664893338 0.0
3.7652139799541247 2.5502366584785219 0.0
1.0645353036866654 0.5627476893004512 0.0
2.8478113829248390 0.2496598137726573 0.0
2.1211159255451957 2.2103151759678252 0.0
3.5962362561004753 2.8410331202809553 0.0
3.1239885225231729 1.0499535666305297 0.0
0.8280422541706538 0.5948787346655958 0.0
4.1541258909620922 2.0587061993469180 0.0
4.1191926211441743 -0.4582265468057748 0.0
3.5528624105188911 1.6413901423177530 0.0
2.2924162887399335 1.5836784515023559 0.0
0.7641786053663400 3.4574472034206951 0.0
0.9871325428276293 0.8483493300218623 0.0
4.2470844970871919 2.0330875319856268 0.0
1.3047868339396760 1.0404678950272088 0.0
1.2204281721925516 0.4750448065509351 0.0
3.1267947999253911 1.8503670871802695 0.0
1.4065426130415353 -0.2952911700010479 0.0
4.2660088193588361 2.4524948438232173 0.0
3.7419578651669898 1.6881406941413990 0.0
3.1647653789881209 2.2119486463460065 0.0
2.8936638007441409 2.9993397889540314 0.0
3.9314282344393492 3.2627052378208381 0.0
0.9493483663314559 0.2989960624735357 0.0
1.7262037336657421 2.4100639056171183 0.0
4.0659934717068831 2.5481309434467740 0.0
3.6905180168805241 -1.4032459445608068 0.0
1.2131528598122321 3.3076046052584385 0.0
1.1575655888990211 0.4745740722016208 0.0
0.9482548788946706 0.3782894495131948 0.0
0.8929466513651464 0.0536923235392213 0.0
4.1194994092085562 2.4671260254761358 0.0
3.8358944326255568 2.8501755019830468 0.0
2.7523702797494938 1.6189299337607657 0.0
1.0306201071955439 1.4840721269795758 0.0
3.9609187012264293 2.6534059330114559 0.0
4.1603283752176274 2.3642049098879765 0.0
4.3029852622456044 2.2199648788864561 0.0
4.0888068990315807 1.9469942517520105 0.0
1.6335561852644154 2.3202426009169757 0.0
3.8017132948188870 -0.1695331505700779 0.0
1.2191474430591287 0.6143174728471824 0.0
3.8552209494306346 1.5463070550177669 0.0
3.9425145046277197 1.4272247691442648 0.0
2.5585880050468659 1.7531095998557227 0.0
3.0777582997776265 1.5185300906855010 0.0
3.0734240607116003 2.0825929343727818 0.0
3.0637722796171438 1.9371939839782211 0.0
3.3506909770747728 1.7730014648457351 0.0
4.0003452168709863 2.2677712332517497 0.0
1.0433406236723672 0.1436744042120621 0.0
2.8656945038659649 2.1272395589842268 0.0
2.4013525234918074 0.8505574129194545 0.0
2.7365439919829218 1.9868188137546647 0.0
2.4134477507466348 -0.0448382496854364 0.0
4.1465438253454083 -0.7647718029259325 0.0
0.9397277822407573 0.9564513572725646 0.0
2.3130079354681952 -1.0760672210751989 0.0
4.0790415634355819 2.5928183907126563 0.0
2.8394532371377648 1.4299489929031590 0.0
3.1287011335088684 1.8653219469720974 0.0
3.4918114198026116 3.9778971094658706 0.0
0.5218880097857020 1.6424250162143201 0.0
3.7498498839696777 2.7540237596062931 0.0
1.5503997021859637 1.8409057205168711 0.0
2.9121442670285749 -0.7013764050169148 0.0
3.7778671691920218 0.8303300060538600 0.0
3.6251434632248176 2.4721942612547378 0.0
0.6311530832422130 0.4987583369257546 0.0
1.2012822898667923 2.2395172053352850 0.0
3.1056443740713382 2.7510260331742931 0.0
1.7179870510349831 2.9227309674791244 0.0
1.0187559977463261 1.8917781056755496 0.0
0.8134640705745779 1.5835921350168154 0.0
1.6637068932200290 3.0813957796434797 0.0
1.4419136539061734 1.1802925027489100 0.0
2.1903369394466758 -1.4148620361778954 0.0
2.1144323345645968 1.5701014476264101 0.0
0.6625851490668625 0.2925445991093259 0.0
0.7630661318775056 0.5772830787000582 0.0
3.9210208319840576 3.4618843998949567 0.0
1.2618320040175193 -0.0783107318835095 0.0
3.3953626930587584 0.8353516120314682 0.0
4.0998218260538524 -0.1770029909908385 0.0
3.9007298776892863 2.4025328703457411 0.0
1.1250736390292235 3.3292141665763659 0.0
2.4997938823543384 0.6915679485835540 0.0
0.5925354150359849 0.3564143090329894 0.0
3.4597909051575702 -0.4876384477098293 0.0
3.6886581002028098 2.6459708738113088 0.0
0.7434783368264948 -0.0158281221411894 0.0
2.5790082394608698 -0.2708775582284588 0.0
2.6465437038815294 1.4222981771846737 0.0
3.6935179524024115 -1.7356583133180323 0.0
0.7923838043724588 0.1054511543477130 0.0
2.4188071897429886 1.5333889330726476 0.0
2.8542329848270747 2.4207119722315444 0.0
2.2150508145364745 1.9607464997536559 0.0
3.9177855452862596 2.5302306478999812 0.0
3.7761516143353488 1.9419880550983621 0.0
2.4924555882303077 1.1037141777993851 0.0
3.7093437902446995 3.7864345482230735 0.0
4.1900489131040546 2.1320318569279646 0.0
0.9336624032945877 0.5965186592138541 0.0
3.1439023122616461 3.2360781996815366 0.0
2.7160920516215588 1.6722069401491004 0.0
4.2229668108047242 2.2141823631133133 0.0
4.1404653537632736 2.0373122146573732 0.0
3.1038312916157977 2.1896590176288302 0.0
3.7405503371275284 2.5819660190300682 0.0
1.2605857275836223 -0.7698127624789057 0.0
3.2812388542368365 0.6456592347072461 0.0
3.9991253745947999 0.1375006767285349 0.0
1.6698202068602535 4.0683863047300388 0.0
2.2520113720403740 1.8646625378980493 0.0
0.7058028429883747 0.6015177338913501 0.0
4.0073475421130222 2.5974747308278641 0.0
4.2924079397898742 2.1657770527423565 0.0
3.9095226503719847 1.1941814303828773 0.0
3.8205458971061423 2.1981996419959207 0.0
3.8233186543468611 2.9139122460023517 0.0
3.4302624587231758 0.0773402287686732 0.0
3.9096580384854103 3.4744936877797032 0.0
3.7959812586511346 2.4547294063794016 0.0
3.7414062499756731 1.9699208444152807 0.0
3.5948661353437581 1.7511026334784652 0.0
2.8236821401744403 1.7848108262497677 0.0
3.3609204964479020 1.3910342596262704 0.0
3.1975067227097753 1.6626915478040911 0.0
3.1543766603712382 2.3314835924708350 0.0
3.2816445474159095 2.5086440584108827 0.0
3.0206740189374099 -0.5001931347863030 0.0
3.6098334892354158 3.8489825767654815 0.0
2.5192269010966473 2.1197311908324412 0.0
2.8945014749843887 1.4048634915134131 0.0
3.9264387781677450 0.5445001802591890 0.0
2.3273441054532178 0.3697115438281895 0.0
3.6801667550944108 1.2369340997420004 0.0
2.7983295091437790 2.6268428140069084 0.0
3.4915985915497685 4.5880932310580853 0.0
3.6354021178714344 2.6417186584780246 0.0
2.2367065738547436 1.3151565547929878 0.0
4.3381569025444211 2.3564030809884340 0.0
4.0198673660752808 2.5773369702699869 0.0
2.8513629932137712 -0.7936030998913846 0.0
4.1175907140193821 1.8277358943296791 0.0
2.5121447159622474 2.0257064933608389 0.0
2.5547299962174881 1.0777583005611897 0.0
3.9389232812612858 2.7230325046618669 0.0
2.7298277101767101 1.3551883340208140 0.0
3.8241352012639238 -0.4303425214951750 0.0
1.9609702037659855 1.4250343719848990 0.0
2.2357045478140667 0.6170732625736963 0.0
2.0853520998433361 0.0407130629991222 0.0
4.1820147812646633 2.4844020565797904 0.0
2.5996422777750543 1.7143801870267135 0.0
2.8096638292312686 2.4548164812492539 0.0
2.9347125757012651 4.7381539417121603 0.0
2.3421985017624465 1.2504225224198666 0.0
2.5252229982019232 2.8797150811654961 0.0
2.1867260092363510 1.6518292415652454 0.0
3.2864549001596348 3.5015114276751942 0.0
1.8251499056249301 1.7704275704264809 0.0
3.9881753561383393 -0.0925943982369646 0.0
3.4947590314551111 2.2544222990208396 0.0
3.8983074769377986 2.5721778317456558 0.0
4.0058810207850319 2.0143151812103786 0.0
4.0414818162149606 2.1158632619438453 0.0
3.6278196454384486 0.4591018016673700 0.0
3.1109416619859931 1.5990305692942282 0.0
1.6451455943917328 1.6761351669796822 0.0
2.2302623919255335 1.0642434131464313 0.0
2.8652882991383168 -1.0483135825915928 0.0
3.7409267528961103 2.5597288957945854 0.0
3.8685276955969949 1.9875393191233204 0.0
1.4156984144446563 0.0759410346723783 0.0
2.0256468613254603 1.1012672510126484 0.0
3.7373540397821374 3.1639852530528980 0.0
1.1179247040400146 0.4466782443700158 0.0
1.8313756295540573 3.2599924193919709 0.0
1.4629725882825082 0.8457950231600837 0.0
3.9861657621001796 1.5912212927795804 0.0
1.8406167822390782 2.2642045594893720 0.0
1.0882737040990753 0.7218022114095354 0.0
2.1246059805307937 2.3889128553069057 0.0
2.7843725429382760 3.3820628716810512 0.0
3.3354521233328698 1.1073897176817149 0.0
3.8230833405796600 0.6563873043295112 0.0
3.5691100236846252 2.2173968046748946 0.0
3.7620641549246288 -1.1277433238617360 0.0
3.2724875584299231 1.7652923491226444 0.0
4.0323382908924490 1.8116841764937495 0.0
1.6398840952040796 -0.3339789776034693 0.0
1.4176909649838680 1.5122319444494339 0.0
3.4461332491777226 2.5835304590758126 0.0
1.2910426012381060 1.8024669083514793 0.0
3.6111635679084122 2.7431368827240781 0.0
3.9299333256645652 1.0955769371651851 0.0
1.4526152332522517 0.7704550259956133 0.0
1.3675561069059354 1.3026598031678802 0.0
3.9161124580195783 -0.9307451842356131 0.0
1.8249967975395263 1.8427258362955010 0.0
1.5032226729064166 0.8470430525229852 0.0
1.2522509068364314 0.1604054269053542 0.0
3.7067497962889449 2.3479170827891114 0.0
4.0192731825856587 0.1536271049933378 0.0
3.1408572225027882 -0.3106769453243528 0.0
1.5934212975638302 3.1018860736429024 0.0
1.1798405080475616 0.9995883609866358 0.0
4.0971365627474663 2.1524771946118966 0.0
1.3277113869596069 0.8015699970975558 0.0
1.5294297547992568 2.7801416853150043 0.0
3.6913378471144305 2.1066080252668198 0.0
1.3265959897573099 -0.2685754941356999 0.0
3.3240823390654604 0.8080033143230085 0.0
3.1582395816811388 2.4883783727927797 0.0
2.6858218596579042 -1.4077194004906906 0.0
4.1025351301669257 2.6153866634395997 0.0
3.4219315553244876 1.9677218890815991 0.0
3.8149097637556038 0.2195963576576470 0.0
2.0000743025335881 3.0560683472378218 0.0
3.6272275708795032 3.6725922025847941 0.0
2.4429983983111514 4.0338199600706526 0.0
0.8527960694346620 0.8071079173924821 0.0
3.7636565293728199 2.5378357922996395 0.0
1.0530433017288312 0.5568291552546947 0.0
2.8501106192921548 0.2536791740881754 0.0
2.1254326690385605 2.2098813914682616 0.0
3.6021282956591558 2.8372621538943386 0.0
3.1183553116748599 1.0522351187270891 0.0
0.8217506982821613 0.5893687708803533 0.0
4.1653677257869939 2.0671901010222689 0.0
4.1188721974331237 -0.4576257031895677 0.0
3.5679394223104768 1.6518459817352158 0.0
2.2856046407929411 1.5840809983447135 0.0
0.7641786053663400 3.4574472034206956 0.0
0.9836098668348225 0.8438558379185246 0.0
4.2428026531941736 2.0407645864697423 0.0
1.3044327114198844 1.0392063007553221 0.0
1.2338234310225704 0.4809951313834301 0.0
3.1074888931187594 1.8391434869325132 0.0
1.4064723451752204 -0.2953081135083132 0.0
4.2644240363487338 2.4529356941836928 0.0
3.7296048593867841 1.6929261529832229 0.0
3.1834766043647647 2.2198517935235289 0.0
2.8935864882234306 2.9965709036633577 0.0
3.9336502930583146 3.2609190184069012 0.0
0.9566026276739680 0.3017744310265038 0.0
1.7262057306255225 2.4101720169683789 0.0
4.0694270294549311 2.5429896398485523 0.0
3.6905428421660473 -1.4033448124658647 0.0
1.2131529814764193 3.3076046113798596 0.0
1.1685028740069077 0.4795483949251419 0.0
0.9370129119090714 0.3733091410712989 0.0
0.8963717056245758 0.0549360595385426 0.0
4.1167819721191625 2.4628497482281402 0.0
3.8410110034572562 2.8408633278018947 0.0
2.7343906454456870 1.6067485952857470 0.0
1.0308318889662413 1.4839781227941764 0.0
3.9689625152331205 2.6453350727875904 0.0
4.1708482022533824 2.3716362748384934 0.0
4.3043486283426295 2.2244274786183786 0.0
4.0782083757375434 1.9547477493651149 0.0
1.6335522603603823 2.3202485427785913 0.0
3.8013947516084827 -0.1672502294391252 0.0
1.2093631406330261 0.6106553097211838 0.0
3.8611375447318901 1.5567878214706201 0.0
3.9428293951770370 1.4384057149531946 0.0
2.5528532731065301 1.7442617833260685 0.0
3.0585673604162458 1.5144093589329328 0.0
3.0632954693669316 2.0691156998364968 0.0
3.0842565713608212 1.9489649975726557 0.0
3.3691271520264703 1.7832979217726426 0.0
3.9860767681045943 2.2631650559907559 0.0
1.0443236568838361 0.1443472288457031 0.0
2.8822070102036146 2.1273350966673688 0.0
2.4141008571222997 0.8580877266078311 0.0
2.7227712838686440 1.9737371879308405 0.0
2.4148653188607963 -0.0423287375819269 0.0
4.1466512741276880 -0.7646972238180854 0.0
0.9399313670269657 0.9566629077600969 0.0
2.3130091319478354 -1.0760654043406623 0.0