# vtk DataFile Version 3.0
LucasCarvalhoTCC Results
ASCII

DATASET POLYDATA
FIELD FieldData 1
TIME 1 1 double
3.3000000000000003

POINTS 531 float
0.02430399999999999 0.16425 0.0
0.5913384 0.481878 0.0
1.30475 0.591832 0.0
0.774126 0.951272 0.0
0.04779564148251592 0.1966194329439859 0.0
0.0726092153537953 0.2279866320496896 0.0
0.09876577335895967 0.2582426022760065 0.0
0.1262817198684718 0.2872673048853742 0.0
0.1551671626852806 0.3149288071400502 0.0
0.1854238368919928 0.3410826624766006 0.0
0.2170424591499632 0.3655716640299072 0.0
0.2499995164635996 0.3882263409476824 0.0
0.2842534387828506 0.4088665906889567 0.0
0.3197403359862048 0.4273050841371062 0.0
0.3563695945475563 0.4433531534921038 0.0
0.3940201673622058 0.4568300511916809 0.0
0.4325386107291805 0.4675762214989666 0.0
0.4717406913237268 0.4754709112408955 0.0
0.5114182513144845 0.480453442081874 0.0
0.5513531678859215 0.4825464217651069 0.0
0.6182637923774223 0.5096055604109244 0.0
0.647389101376845 0.5350126187545199 0.0
0.6784752958296183 0.5579802184492302 0.0
0.7112421079139344 0.5784810076698811 0.0
0.7454110434104482 0.5965507527581431 0.0
0.7807301979183381 0.6122562812860965 0.0
0.8169827939052532 0.6256694297140926 0.0
0.853985522124928 0.6368498290413532 0.0
0.8915818964261243 0.6458353363890481 0.0
0.9296339776508085 0.6526379336565091 0.0
0.9680139759519513 0.6572432424840469 0.0
1.006596418266983 0.659612648128084 0.0
1.045251165872634 0.6596877658251245 0.0
1.083837680945672 0.657397570658483 0.0
1.122201320191055 0.6526688455666412 0.0
1.160173053543044 0.6454405726452737 0.0
1.197574286953346 0.6356824063786186 0.0
1.23422961949795 0.6234159704281613 0.0
1.26998758503999 0.6087366500005643 0.0
1.285086682927543 0.6256533177085738 0.0
1.263669745906668 0.6583917156018083 0.0
1.240480125919214 0.6898988493917133 0.0
1.215532715641304 0.7200329197235763 0.0
1.188869833862339 0.7486599839005789 0.0
1.160556835593143 0.7756559317113654 0.0
1.130680194163798 0.8009104211039757 0.0
1.099347083827048 0.8243335727704395 0.0
1.066684425336412 0.8458643604021228 0.0
1.03283497048792 0.8654772531176074 0.0
0.9979492572630678 0.8831824104874066 0.0
0.9621749986495024 0.8990166556695112 0.0
0.9256475378616493 0.9130272060048579 0.0
0.8884846540507749 0.9252538945090274 0.0
0.8507866567183312 0.935715378288671 0.0
0.8126405010322847 0.9444016349017643 0.0
0.7365055179612304 0.9396161853607135 0.0
0.699310855231089 0.9266666891603924 0.0
0.6626179171945521 0.9123577070090924 0.0
0.6264901449910028 0.8966765244755546 0.0
0.5909789825447118 0.8796450886595113 0.0
0.556124897941028 0.8613059841617771 0.0
0.5219601957009091 0.8417124664434518 0.0
0.4885110616878257 0.8209207172498462 0.0
0.4558007060429968 0.7989848675704875 0.0
0.4238520247653796 0.775953675763176 0.0
0.3926900138417566 0.7518687036338616 0.0
0.3623437622133722 0.7267636709390595 0.0
0.3328479550295906 0.7006647540504483 0.0
0.3042438201183181 0.6735915983461908 0.0
0.2765795358619001 0.6455588748284606 0.0
0.2499101143933102 0.6165781952942546 0.0
0.2242967982692083 0.5866601984136335 0.0
0.1998060807431611 0.5558166834807132 0.0
0.1765083808984156 0.5240625786010467 0.0
0.154476512720734 0.491417660368959 0.0
0.133784033184808 0.457907916333494 0.0
0.114503564227142 0.4235664945146766 0.0
0.09670517293008124 0.3884342245925089 0.0
0.0804548910754031 0.3525597611689231 0.0
0.06581337946329963 0.3159993090744527 0.0
0.05283482490365372 0.2788161107032479 0.0
0.0415660226296666 0.2410796291505872 0.0
0.03204569406625649 0.2028646095712164 0.0
0.5272009874003867 0.6419624505772817 0.0
0.7421848286576707 0.7716726266421574 0.0
0.8789503364783713 0.7829234141383637 0.0
0.6149390992905563 0.7449438030688011 0.0
0.4064556042659638 0.5942834991165423 0.0
0.9875021850865396 0.7666507358101158 0.0
0.3188065960661005 0.539594034984892 0.0
0.61365100263957 0.6399487878797632 0.0
0.8049090660915541 0.8464379870891131 0.0
0.7099820328572021 0.6828840522539854 0.0
0.5239467234991928 0.7406922291088611 0.0
0.8154056325591208 0.7211774015928547 0.0
0.6676178829014909 0.8152713180209475 0.0
0.4416080359619968 0.674360953773491 0.0
0.489443615375965 0.5654986742123573 0.0
1.076665773779852 0.7387182918829318 0.0
0.250390543112057 0.4877450112830265 0.0
0.5736819937919005 0.5790366884881447 0.0
0.7263706755366466 0.8615301097563091 0.0
0.940143307772686 0.8233944909985552 0.0
0.927065543677544 0.7236459161626674 0.0
0.8744389806957806 0.8609114380468947 0.0
0.336888362650554 0.6081958070931937 0.0
0.2030757334857187 0.4383942902513459 0.0
0.3861483329720647 0.5255533415902591 0.0
0.5621001921466506 0.7923778419149285 0.0
0.6822897332295245 0.7428043323059399 0.0
0.5764061681675353 0.6881266532454204 0.0
1.129195449682892 0.7163224153578123 0.0
0.8157794419559141 0.7831214907157077 0.0
0.3806644703311284 0.6554275822782399 0.0
0.7695737871052837 0.669593045341503 0.0
0.4699375460410929 0.6217118815516158 0.0
0.6830867370872363 0.630350317562806 0.0
1.040416897214502 0.7929392348941093 0.0
0.4604428393605979 0.7321209818568342 0.0
0.8729552856459739 0.7015083313474691 0.0
1.017010765275644 0.7166925631396708 0.0
0.6458785458483771 0.6946878992565794 0.0
0.7733575582969163 0.8941098392103913 0.0
0.4457537579383052 0.5273353624588528 0.0
0.163830623786951 0.3903175742448083 0.0
0.6095823984734953 0.8256600013628639 0.0
0.2618074352614998 0.5435604438425528 0.0
0.6287880420949764 0.5875838132975476 0.0
0.3100402147222924 0.4835410260423071 0.0
0.5422177893302824 0.5343158927797464 0.0
0.9964262112680041 0.8213447667248638 0.0
0.4971609598823845 0.6906859160718212 0.0
0.5740517260168769 0.633982031239429 0.0
0.7423299505107201 0.7218768583704394 0.0
0.767147744476665 0.819658485932403 0.0
0.9427329070375209 0.7774595780066723 0.0
0.8375285793481674 0.8869398470561132 0.0
0.2879426409425497 0.5872676364411625 0.0
0.6797562629663748 0.8647676397847667 0.0
1.171674168522591 0.6949964056806914 0.0
0.5261010885606964 0.6055079299963303 0.0
0.7081534744446967 0.8078672678314597 0.0
0.9681672688626206 0.705385299758921 0.0
0.7364069054947873 0.6432919177737106 0.0
0.363826821075015 0.5678764295233764 0.0
0.826170216989844 0.6605791783255148 0.0
0.1284439337099834 0.3602715082199688 0.0
0.518140828090112 0.783905985497134 0.0
0.8452908336054504 0.8167586152211004 0.0
0.2015204468558833 0.492088055688788 0.0
0.4005883523205732 0.7121294304856254 0.0
0.3551392316798573 0.4864133323669936 0.0
0.2501727034998737 0.4443035857235296 0.0
0.857938396055507 0.7390317828783199 0.0
0.9245301815433076 0.8668102132501951 0.0
0.5702050292970205 0.7323438487067678 0.0
1.111607633075016 0.759318252473435 0.0
0.6317193755596126 0.7853891653733797 0.0
0.7921381265818805 0.7497379312370454 0.0
1.088942426366261 0.7015435214091311 0.0
0.5818207607488639 0.5352340257544296 0.0
0.4203532416309484 0.6369649631143086 0.0
0.4854818714173937 0.5131439318707094 0.0
0.4475429831528036 0.5690430472086269 0.0
0.8968753306595262 0.8225547516037004 0.0
0.6339557898063448 0.8543470494763272 0.0
0.3416564411796998 0.6516449771136894 0.0
1.082970576264455 0.7856036465430698 0.0
0.2255204648032354 0.5229464838393291 0.0
0.7335043541589261 0.9012744999286941 0.0
0.9097052989734319 0.6921177492721042 0.0
0.5363428275528405 0.6992389299864537 0.0
0.9657777897300287 0.8588269742066746 0.0
1.025947476617909 0.7556651119714124 0.0
0.1090829970454354 0.3226173037985549 0.0
0.4836644525169279 0.7663103281018557 0.0
0.6910856326166581 0.777867529208468 0.0
0.6694391877434097 0.5946719355048008 0.0
0.2954883530575775 0.4501042133334518 0.0
0.6746032498128595 0.6643957640016517 0.0
1.054636636429828 0.6974583960183274 0.0
0.8939255235163368 0.7470597914537064 0.0
0.3749741568555516 0.6190655430398917 0.0
1.204101441114554 0.6801433534918062 0.0
0.6130053345415899 0.6785345531932346 0.0
0.7679719108452487 0.8562682874000032 0.0
0.9710820219997449 0.8008372590855476 0.0
0.1608022352294362 0.4242591696906621 0.0
0.2865399820604418 0.5141369963640697 0.0
0.1962258775846918 0.4008383427744516 0.0
0.6210920174972845 0.5516143721732873 0.0
0.4843009180093644 0.6583977883024127 0.0
0.5695029195102991 0.8267073580550881 0.0
0.9562891163300477 0.7436031251145003 0.0
0.4174190173896447 0.5044019081507806 0.0
0.410860431802698 0.5535781448116232 0.0
0.8709320861791604 0.9002602580953145 0.0
0.427354757192076 0.7399041791280969 0.0
0.7107884943357746 0.7172753954970394 0.0
1.030382288537246 0.8267335242583146 0.0
0.7737440530215844 0.7115751739064536 0.0
0.8042035044852396 0.9123190309183211 0.0
0.0480920891272324 0.2181807374272496 0.0
0.3695079235280397 0.6886893012630373 0.0
0.773516204411121 0.7830673827025234 0.0
0.302776671534508 0.6210168062901616 0.0
0.7150573728414059 0.6149413270404035 0.0
0.5863276441271683 0.769748656022605 0.0
1.143752049005473 0.6780480059671409 0.0
0.6477132714923303 0.7318578097016951 0.0
0.8380052680878572 0.8531154611905379 0.0
0.5966224054445893 0.6051703156405629 0.0
0.3207240819522855 0.5772784374275386 0.0
0.3520131451607586 0.5263918604440553 0.0
0.8573528491808811 0.6709738722470224 0.0
0.1797236573643203 0.460867988842514 0.0
0.5540828191547277 0.6661566975721369 0.0
1.158039843450239 0.7357536542887966 0.0
0.08638006908591334 0.286237566592474 0.0
0.790861820497242 0.6466611559014377 0.0
0.5362079962218838 0.8121454698907893 0.0
0.9405172130232713 0.6862060282668497 0.0
0.6039359324506977 0.711463595189489 0.0
0.4440093493753478 0.6096873538428137 0.0
0.5500746279087338 0.7620941994763282 0.0
0.2578504496023611 0.5739900063885278 0.0
0.502526452350101 0.6209820553182169 0.0
0.6799833858912959 0.7033681517905728 0.0
0.7183487148906835 0.7518430858176317 0.0
0.8006701240044786 0.8118713608014352 0.0
0.1304684854221093 0.3934039266496895 0.0
1.00789495394612 0.7937868725857601 0.0
0.696960396255943 0.893370944718147 0.0
0.8258315165019564 0.7538365084989149 0.0
0.8462950259502577 0.775614153529746 0.0
0.4082018839227037 0.6749460331934272 0.0
0.7025889307788081 0.8378536687159448 0.0
0.4666676520109517 0.6984557076050861 0.0
[...]
POINT_DATA 531

VECTORS Velocity float
0.0000000000000000 1.0000000000000000 0.0
0.0000000000000000 1.0000000000000000 0.0
2.6381776174927367 -0.9593341272119092 0.0
1.7880949780986868 1.0235588438827294 0.0
0.0000000000000000 1.0000000000000000 0.0
0.0000000000000000 1.0000000000000000 0.0
0.0000000000000000 1.0000000000000000 0.0
0.0000000000000000 1.0000000000000000 0.0
0.0000000000000000 1.0000000000000000 0.0
0.0000000000000000 1.0000000000000000 0.0
0.0000000000000000 1.0000000000000000 0.0
0.0000000000000000 1.0000000000000000 0.0
0.0000000000000000 1.0000000000000000 0.0
0.0000000000000000 1.0000000000000000 0.0
0.0000000000000000 1.0000000000000000 0.0
0.0000000000000000 1.0000000000000000 0.0
0.0000000000000000 1.0000000000000000 0.0
0.0000000000000000 1.0000000000000000 0.0
0.0000000000000000 1.0000000000000000 0.0
0.0000000000000000 1.0000000000000000 0.0
0.0000000000000000 0.0000000000000000 0.0
0.0000000000000000 0.0000000000000000 0.0
0.0000000000000000 0.0000000000000000 0.0
0.0000000000000000 0.0000000000000000 0.0
0.0000000000000000 0.0000000000000000 0.0
0.0000000000000000 0.0000000000000000 0.0
0.0000000000000000 0.0000000000000000 0.0
0.0000000000000000 0.0000000000000000 0.0
0.0000000000000000 0.0000000000000000 0.0
0.0000000000000000 0.0000000000000000 0.0
0.0000000000000000 0.0000000000000000 0.0
0.0000000000000000 0.0000000000000000 0.0
0.0000000000000000 0.0000000000000000 0.0
0.0000000000000000 0.0000000000000000 0.0
0.0000000000000000 0.0000000000000000 0.0
0.0000000000000000 0.0000000000000000 0.0
0.0000000000000000 0.0000000000000000 0.0
0.0000000000000000 0.0000000000000000 0.0
0.0000000000000000 0.0000000000000000 0.0
2.6783039458283269 -1.7943226017454916 0.0
3.6709727400069494 -2.3039266007898132 0.0
3.7611146802587472 -2.2278939907628192 0.0
3.7603896476227847 -1.9721321207821385 0.0
3.8379718115933943 -1.7474406195497787 0.0
3.9175233495884534 -1.4306873669448390 0.0
3.9557922306916895 -1.2545253077823930 0.0
4.0407671948261354 -1.0139555969839924 0.0
3.9719192175869775 -0.6959746971805448 0.0
3.9330347497084852 -0.4284410485924359 0.0
3.7962541613279095 -0.1446979511295167 0.0
3.5905072013145261 0.1341175245247120 0.0
3.4280042353749121 0.3533376830049410 0.0
3.1148070173650551 0.5770178800262598 0.0
2.5538180754861148 1.0847634397620323 0.0
1.7734653712770445 0.9498229312681219 0.0
0.0000000000000000 0.0000000000000000 0.0
0.0000000000000000 0.0000000000000000 0.0
0.0000000000000000 0.0000000000000000 0.0
0.0000000000000000 0.0000000000000000 0.0
0.0000000000000000 0.0000000000000000 0.0
0.0000000000000000 0.0000000000000000 0.0
0.0000000000000000 0.0000000000000000 0.0
0.0000000000000000 0.0000000000000000 0.0
0.0000000000000000 0.0000000000000000 0.0
0.0000000000000000 0.0000000000000000 0.0
0.0000000000000000 0.0000000000000000 0.0
0.0000000000000000 0.0000000000000000 0.0
0.0000000000000000 0.0000000000000000 0.0
0.0000000000000000 0.0000000000000000 0.0
0.0000000000000000 0.0000000000000000 0.0
0.0000000000000000 0.0000000000000000 0.0
0.0000000000000000 0.0000000000000000 0.0
0.0000000000000000 0.0000000000000000 0.0
0.0000000000000000 0.0000000000000000 0.0
0.0000000000000000 0.0000000000000000 0.0
0.0000000000000000 0.0000000000000000 0.0
0.0000000000000000 0.0000000000000000 0.0
0.0000000000000000 0.0000000000000000 0.0
0.0000000000000000 0.0000000000000000 0.0
0.0000000000000000 0.0000000000000000 0.0
0.0000000000000000 0.0000000000000000 0.0
0.0000000000000000 0.0000000000000000 0.0
0.0000000000000000 0.0000000000000000 0.0
3.9052163346234865 2.5805085143863766 0.0
4.2270491043900940 2.0383028067600191 0.0
3.9148458088283422 1.1253002177512417 0.0
3.8278234946141754 2.2024942805820249 0.0
3.7998704178097098 2.9196060671830328 0.0
3.5283935344004669 0.1232330675959193 0.0
3.9045802267078540 3.4854840722599203 0.0
3.7058368144457323 2.4327120932844650 0.0
3.6900143993164907 1.8416013652442726 0.0
3.5622487888061820 1.7073533592382966 0.0
2.8902533098720795 1.8560849897108935 0.0
3.4317057288413229 1.3399307436981367 0.0
3.2763615809591711 1.6806849056093280 0.0
3.1673313064977529 2.3769212677367699 0.0
3.2623600726631361 2.4776005529246716 0.0
3.0843906249442399 -0.4555074384588688 0.0
3.6084138582907150 3.8515497320646674 0.0
2.5208524279534572 2.1235326592889709 0.0
2.9713477510466784 1.4046308668613094 0.0
3.8442342795559061 0.5434776823897446 0.0
2.4973383405942884 0.3851868511034964 0.0
3.5752755215773777 1.1716143599054309 0.0
2.8051505921259308 2.6492533788764381 0.0
3.4916620299918590 4.5881302371896631 0.0
3.6186109791744454 2.6405750129236667 0.0
2.3419482952897788 1.3782202807406276 0.0
4.2708128242363665 2.2728245321638960 0.0
3.9437893220313134 2.5640238824173984 0.0
2.8831942391288368 -0.7808673469231106 0.0
4.0697929375445385 1.6993020744857796 0.0
2.5300763451212269 2.0626540774056865 0.0
2.5943108457397743 1.0605579016346223 0.0
3.8698985297091775 2.7068696946736557 0.0
2.7128584972283059 1.3574527340223883 0.0
3.8087028149311042 -0.3357159762370371 0.0
2.0284461356658969 1.4825258027612673 0.0
2.3756128898462383 0.6357976777462002 0.0
2.2120477593018730 0.0673907001224995 0.0
4.0887231855743309 2.4291540605848980 0.0
2.6428742720909710 1.6985837718135897 0.0
2.7967716122710047 2.4429001092524816 0.0
2.9347998781409741 4.7381098979508556 0.0
2.4430384604065671 1.3034316599825946 0.0
2.5258325194507432 2.8849515082984030 0.0
2.1907203120802134 1.6688397787771703 0.0
3.2803674892987655 3.5020878912165045 0.0
1.8488519830220789 1.7719706148111916 0.0
3.8911799717295814 -0.0118660086058570 0.0
3.4994431536895023 2.3012840428998569 0.0
3.7910642079454173 2.5470401203926194 0.0
3.9713466487863438 1.9108141749886065 0.0
3.9950410160515486 1.9943523734221333 0.0
3.6874265924312382 0.4726588876256173 0.0
3.0474808950740178 1.5317328560456707 0.0
1.6492237612717193 1.6836292619793156 0.0
2.3300493449527280 1.1020023702204731 0.0
2.8770180724545753 -1.0348750132336335 0.0
3.6676253202064286 2.5317750516536717 0.0
3.8812056360594527 1.9509467766466972 0.0
1.5406331926987329 0.0917768055077868 0.0
2.0311904478919183 1.0785309065959756 0.0
3.7284638532117520 3.1755201300861735 0.0
1.1736522108543710 0.4561622253246014 0.0
1.8313874546814739 3.2599739209353338 0.0
1.5319494194490699 0.8939883730285088 0.0
3.9106023757142303 1.4799211804162409 0.0
1.8405020954227260 2.2645623656480831 0.0
1.1173724926070197 0.7505581104468080 0.0
2.1144649681277357 2.3895718619761834 0.0
2.7835784273172344 3.3826104174076139 0.0
3.4374267556875551 1.0789795436458429 0.0
3.6621052904223892 0.6601245024776187 0.0
3.5839426636945979 2.2561137551938826 0.0
3.7580561898759273 -1.0767178104994688 0.0
3.3492803313152573 1.7961618930225522 0.0
4.0167099932124426 1.6988454495495091 0.0
1.6881123437594598 -0.3236062571577284 0.0
1.4380110812925608 1.5206354215340521 0.0
3.4361031588400173 2.6122709622226541 0.0
1.2937964862837512 1.7957001787170881 0.0
3.5840171633998974 2.7217118176862187 0.0
3.8436991771843374 1.0298015146424215 0.0
1.5264840209238513 0.8079496404193440 0.0
1.3788439136947876 1.3222391586607376 0.0
3.8896077120079320 -0.8311929611639837 0.0
1.8249042548579872 1.8443040544681879 0.0
1.5527939314173631 0.8538274527467915 0.0
1.3638724946759535 0.1639125094204228 0.0
3.6922841018970343 2.3790978089636599 0.0
3.8265808985178942 0.2149463129268211 0.0
3.2376811543740032 -0.2432326698686159 0.0
1.5934201445704166 3.1018889853036180 0.0
1.2355089476709873 1.0495052654972856 0.0
4.0848308992837561 2.0964296670700504 0.0
1.3258382343127195 0.8067909363612502 0.0
1.5274284427564331 2.7800988886967266 0.0
3.6302772535296080 2.0695615681237736 0.0
1.3906544305793895 -0.2569830695625948 0.0
3.4450961134382143 0.7972225300488637 0.0
3.1613393987876255 2.5189827622040819 0.0
2.6876339027226930 -1.4041193490513144 0.0
3.9984280097061005 2.5657126252397102 0.0
3.4374025863118174 1.9018726905766605 0.0
3.8063667029108319 0.2549125228829421 0.0
2.0001127711673736 3.0558786698668592 0.0
3.6235818299016005 3.6779291906062497 0.0
2.4432123514589112 4.0337648255168670 0.0
0.8610551623216867 0.8197043229129271 0.0
3.7183077600364096 2.5529733424807981 0.0
1.1162148308696733 0.5897955085309254 0.0
3.0071223463389156 0.2788575315736053 0.0
2.1120721748776154 2.2034653688621875 0.0
3.5816854072065620 2.8308452877374051 0.0
3.0250413256649220 1.0312082592433789 0.0
0.8558548797342166 0.6204204083304604 0.0
4.1072150407676897 1.9848250083212153 0.0
3.9828099224263633 -0.3443142433058368 0.0
3.5863872796701792 1.5796281169544482 0.0
2.2856852146370388 1.5620249846620140 0.0
0.7641786029065413 3.4574472102959009 0.0
1.0027676575134166 0.8677474325350111 0.0
4.1737763655192186 1.9012510713280888 0.0
1.3095141330312348 1.0481357891706373 0.0
1.2288164037952019 0.4763528291422751 0.0
3.1908387710027739 1.8894621821325890 0.0
1.4261934194207766 -0.2922287483047109 0.0
4.1944449092547300 2.3970466082659185 0.0
3.6535110948525595 1.5950857879193865 0.0
3.1411734865778831 2.2215145618163037 0.0
2.8984940415495393 3.0127359961644768 0.0
3.9184795326684556 3.2644926868739046 0.0
1.0241969670430646 0.3133313272780450 0.0
1.7260674632867197 2.4099874620717787 0.0
3.9680891614576295 2.5340114703372292 0.0
3.6875967451832374 -1.3684203533327717 0.0
1.2131516450993840 3.3076049500070948 0.0
1.2036169854742076 0.4861916202779410 0.0
0.9961974472537165 0.3975893239868880 0.0
0.9830256927504428 0.0574015193933163 0.0
4.0477468404361572 2.4404147898334667 0.0
3.8000536208165356 2.8347520332085985 0.0
2.8194892506600961 1.6733734205300335 0.0
1.0324094707675144 1.4886095655670635 0.0
3.8851162670118664 2.6241902623337654 0.0
4.0920895714279260 2.2985311440507696 0.0
4.2405767654941382 2.1151878506982937 0.0
4.0088626241063459 1.8104898156210887 0.0
1.6335953349478221 2.3201838055986124 0.0
3.8002976527596481 -0.0811860003083353 0.0
1.2645373975479897 0.6284827175633938 0.0
3.8787761311505768 1.4753568766481782 0.0
3.9380601860159330 1.3511503048932463 0.0
2.5772937911941938 1.7918699603923725 0.0
3.1305063379813372 1.5096899527361367 0.0
3.0874821052177497 2.1222915582853452 0.0
3.0515072605727114 1.9439897269522894 0.0
3.3692026476310257 1.7157292043500645 0.0
3.9927578344671617 2.2280607374861545 0.0
1.1320270644314916 0.1621719563313714 0.0
2.8763151473099997 2.1156946484108965 0.0
2.5362596175460457 0.8649713737991473 0.0
2.7796119628756952 2.0290050828884776 0.0
2.5678867024849961 -0.0106775745103094 0.0
4.0436593401562346 -0.6386565924359290 0.0
0.9406036622620627 0.9587192585508896 0.0
2.3131999416031119 -1.0759878937951881 0.0
3.9703784864476508 2.5623403417805068 0.0
2.8436531259709819 1.4305778259234685 0.0
3.1009557050637850 1.7847083995600352 0.0
3.4908849253875571 3.9786885211270748 0.0
0.5404757947639349 1.6426273467867787 0.0
3.7159011662746733 2.7141603592371153 0.0
1.5405269200900291 1.8395736702334404 0.0
2.9531189861170581 -0.6646068020967267 0.0
3.8010992897763307 0.8144695017401765 0.0
3.5710253635561222 2.4512961643365365 0.0
0.6569401238191591 0.5231832843419200 0.0
1.1983119696149016 2.2394148673996441 0.0
3.1069133365023140 2.7600289359717936 0.0
1.7179986387980279 2.9228691615095004 0.0
1.0160046287870725 1.8870267564848371 0.0
0.8339277768524563 1.5825475928405166 0.0
1.6637997902362711 3.0813985652345224 0.0
1.4633809011185868 1.1768154640619934 0.0
2.1901961129009289 -1.4150427894630129 0.0
2.1526695913246088 1.6179872020001433 0.0
0.6983808023691321 0.3043382701061077 0.0
0.7767751341791967 0.5905117306159293 0.0
3.9108753195651773 3.4643981257530272 0.0
1.2874125557490570 -0.0736640682385265 0.0
3.2560496131640093 0.8285595952002071 0.0
3.9063002422437823 -0.0750897384463023 0.0
3.8299925082202386 2.3763232641920444 0.0
1.1250736908422592 3.3292141186657624 0.0
2.6732794288523585 0.7016448090233308 0.0
0.6230763688074639 0.3770430496616572 0.0
3.5113017050674760 -0.3987881030309186 0.0
3.6579252102881421 2.6552370421876064 0.0
0.8055716545794414 -0.0097980269726298 0.0
2.6825817161574745 -0.2231590163555429 0.0
2.7367719612399992 1.4718112657591687 0.0
3.6939585031181883 -1.7188012696190946 0.0
0.8638910121701393 0.1104689117162853 0.0
2.5143786926495393 1.5774265872623576 0.0
2.8612379864538662 2.3950315388096866 0.0
2.2438636316038525 1.9455847129820045 0.0
3.8497658728113628 2.5270072101710519 0.0
3.7775625614183346 1.8862880299056568 0.0
2.5835181051194365 1.0995137208285328 0.0
3.7053549333949283 3.7874205049636531 0.0
4.1307932391555662 2.0265316784508931 0.0
0.9616882930261641 0.6043588590553027 0.0
3.1437913679394680 3.2408042772744019 0.0
2.7598662548002739 1.6550020076379039 0.0
4.1691509355209933 2.1194833232208556 0.0
4.1048476604375201 1.9227957854238813 0.0
3.0828328536882679 2.2052698144143461 0.0
3.6980270722077995 2.5485175757255836 0.0
1.2652509410103443 -0.7680273983188389 0.0
3.4138548563233431 0.6531946893798428 0.0
3.8740655033825000 0.1979011484205050 0.0
1.6698588246488575 4.0683843583074903 0.0
2.2791503157004254 1.8922016082335127 0.0
0.7225325671074023 0.6038890522925658 0.0
3.9218356585375855 2.5701497820800960 0.0
4.2199927643563173 2.0465176258274860 0.0
3.9140228895199165 1.1465225747966405 0.0
3.7956130931541114 2.1831979404720223 0.0
3.8085412662386471 2.9017035498585657 0.0
3.5292645860130691 0.1363245088051698 0.0
3.9088587249040976 3.4769943183271490 0.0
3.7446077981359882 2.4556371786426530 0.0
3.6505023976587156 1.8541259955521352 0.0
3.6064590966552079 1.7333688115597099 0.0
2.8507831338667224 1.8243309944474115 0.0
3.4689298203000751 1.3616996971662505 0.0
3.2287159542513564 1.6607664518426408 0.0
3.1451393788238100 2.3439646387637314 0.0
3.2996689542753650 2.4738543615202500 0.0
3.0849545506708931 -0.4537753196860333 0.0
3.6089058087354533 3.8507412807850105 0.0
2.5623956561204912 2.1388241908761461 0.0
2.9266909055497843 1.3948328800341436 0.0
3.8299044085584018 0.5586232508277659 0.0
2.5169104550581594 0.3967554782788227 0.0
3.5469338214004780 1.1837764129935258 0.0
2.8007226325778731 2.6339690457061002 0.0
3.4915725504125739 4.5881811632167553 0.0
3.6332329332290558 2.6364381921440545 0.0
2.2983900024054345 1.3528307539149282 0.0
4.2711556239365489 2.2763214021424067 0.0
3.9385657759039110 2.5532061702671576 0.0
2.8830993156014939 -0.7810576100093253 0.0
4.0653793065153403 1.7211920566486174 0.0
2.5154079044525424 2.0394796441298535 0.0
2.6384487168416655 1.0801054874481830 0.0
3.8825896194426681 2.6870541117765141 0.0
2.7610368210154825 1.3827783416694954 0.0
3.8068559564439730 -0.3305579513478949 0.0
1.9957958525226360 1.4560895393706290 0.0
2.4082417178539712 0.6473949849891828 0.0
2.2165735385542629 0.0722993381491372 0.0
4.1088959170861257 2.4420925821669970 0.0
2.6076641210065601 1.6968437089723631 0.0
2.8237176306450622 2.4424692803970451 0.0
2.9347563482233929 4.7381361494440197 0.0
2.3994308206653820 1.2806439759103427 0.0
2.5262603134346397 2.8826383698256399 0.0
2.2318176998211774 1.6973004374515859 0.0
3.2831037167306349 3.5011693972913052 0.0
1.8848629976186100 1.7774865393006165 0.0
3.8830613477294111 -0.0028664516178649 0.0
3.4711439495047403 2.2700183618963981 0.0
3.8229869383295378 2.5530815675246239 0.0
4.0033920912364538 1.9290738619123826 0.0
3.9587056949442072 1.9998327129147184 0.0
3.6850477824655368 0.4890187616104110 0.0
3.0221972827762569 1.5372321370636235 0.0
1.6473804447356801 1.6788229543268589 0.0
2.2876310012038554 1.0856199851710220 0.0
2.8769331151341175 -1.0350818250085827 0.0
3.6999314468958850 2.5321172732422466 0.0
3.8395634720823271 1.9384378826194149 0.0
1.5526218552459583 0.0991566941572191 0.0
2.0708473946189252 1.0983106853711364 0.0
3.7345312855947297 3.1624145380770394 0.0
1.2003705886002225 0.4665860395407933 0.0
1.8313775576911966 3.2599873425487980 0.0
1.5006891547351509 0.8739635380015564 0.0
3.8875515503999836 1.4993516861347200 0.0
1.8406088157356466 2.2646507043536568 0.0
1.1004598583203606 0.7357445764199593 0.0
2.1218330374155623 2.3881093875485639 0.0
2.7836094932096409 3.3824002291671178 0.0
3.4618213007663634 1.0996282888823632 0.0
3.6452434054874892 0.6695598836806586 0.0
3.5518174742508517 2.2293681073776064 0.0
3.7584151425956489 -1.0768591123134701 0.0
3.3030054027952542 1.7733476301485904 0.0
4.0365813779203137 1.7190800429973216 0.0
1.6877567470003509 -0.3234017036599303 0.0
1.4671770329648144 1.5330960159876659 0.0
3.4288781285957373 2.5862021093821967 0.0
1.3166761645409595 1.7975975445201005 0.0
3.6089573582325358 2.7108527359388157 0.0
3.8244257418423806 1.0492650523895004 0.0
1.4933719088395350 0.7915420015359474 0.0
1.3702751020846673 1.3092272303195778 0.0
3.8898091970138489 -0.8298335286426552 0.0
1.8251262311051981 1.8438473557456132 0.0
1.5274613385924962 0.8492814891091879 0.0
1.3832205121597465 0.1709254722880229 0.0
3.6666836417861952 2.3542183396116196 0.0
3.8164099481869882 0.2216626232703340 0.0
3.2392477023909287 -0.2349784692098062 0.0
1.5934192947082366 3.1018877621811769 0.0
1.2083944890298064 1.0261638044986852 0.0
4.0548517737742387 2.0877976833863898 0.0
1.3584341042332635 0.8259900122639553 0.0
1.5279832392504467 2.7800809392965329 0.0
3.6748235052670042 2.0947194877640434 0.0
1.3915005218492256 -0.2554089158875981 0.0
3.4578206749503666 0.8163029451432584 0.0
3.1571922046135366 2.4959819683620887 0.0
2.6876250848067138 -1.4041687741145594 0.0
4.0169817924096378 2.5742685967236492 0.0
3.3926559512542611 1.9009570732767456 0.0
3.7994203169541532 0.2674267531725891 0.0
2.0000967852509848 3.0560009187251120 0.0
3.6256722578613054 3.6748186009455881 0.0
2.4430869724571322 4.0337878245593481 0.0
0.8829873547304331 0.8376390142629638 0.0
3.7100561824752698 2.5259881559473150 0.0
1.0886891322735655 0.5755506234773844 0.0
3.0172962761509314 0.2918882999596717 0.0
2.1287204102717663 2.2035775491290339 0.0
3.6016769447102170 2.8215863933014589 0.0
3.0073654576677025 1.0378674370593910 0.0
0.8382157437640236 0.6060202599151961 0.0
4.1356774897324069 2.0029044989888711 0.0
3.9790512083823004 -0.3404366860990626 0.0
3.6263079229150965 1.6016162006522379 0.0
2.2664338006302662 1.5628482844581302 0.0
0.7641786029065415 3.4574472102959017 0.0
0.9903337789557667 0.8537767764776457 0.0
4.1638286590759597 1.9153391988146244 0.0
1.3059726573636508 1.0417329265553608 0.0
1.2609664956750264 0.4904904675900543 0.0
3.1446444142638894 1.8625379158327104 0.0
1.4258917156901041 -0.2922682720643113 0.0
4.1911114231795645 2.3977023006058635 0.0
3.6170355906446336 1.6067927972820917 0.0
3.1858835534495951 2.2437366004574053 0.0
2.8962533586211472 3.0011337652894605 0.0
3.9288284200041166 3.2591698147895096 0.0
1.0470868403572315 0.3208423421891682 0.0
1.7261320439819821 2.4101724820449948 0.0
3.9732667477360764 2.5248849449106374 0.0
3.6877820877924670 -1.3687452738066397 0.0
1.2131524076094127 3.3076049311621034 0.0
1.2323208257654925 0.4984511687508686 0.0
0.9691796375979679 0.3856975049854070 0.0
0.9979051972958194 0.0612566763618099 0.0
4.0407682339700735 2.4307469162194542 0.0
3.8123023784573618 2.8125988125794859 0.0
2.7759513754711209 1.6446386134648530 0.0
1.0317080348088545 1.4858837917194934 0.0
3.9025748867547683 2.6088771524535144 0.0
4.1177889949914519 2.3153040740734392 0.0
4.2454677991186314 2.1223938120561510 0.0
3.9807392497819540 1.8258273569856962 0.0
1.6335803610360404 2.3202288204800512 0.0
3.7968254498238658 -0.0708331462596922 0.0
1.2394991866518859 0.6189368798079212 0.0
3.8958463703259554 1.4975763459519258 0.0
3.9389915006285539 1.3764153747043895 0.0
2.5572317815927423 1.7670489300663612 0.0
3.0831299410714301 1.4972851931578863 0.0
3.0580110359819539 2.0906551421943842 0.0
3.1003740517681186 1.9730943722152827 0.0
3.4155075404482438 1.7380098931405354 0.0
3.9592809403757587 2.2159014416798604 0.0
1.1389961086866396 0.1653233780756166 0.0
2.9191254520601735 2.1192543345072568 0.0
2.5744127711888161 0.8829526482873747 0.0
2.7433765000758998 1.9989912128069034 0.0
2.5758324269192303 -0.0010269831111586 0.0
4.0425539467107319 -0.6369141199741317 0.0
0.9404218785934735 0.9578285094914168 0.0
2.3131952604436252 -1.0759856854383745 0.0