# vtk DataFile Version 3.0
LucasCarvalhoTCC Results
ASCII

DATASET POLYDATA
FIELD FieldData 1
TIME 1 1 double
4.800000000000001

POINTS 531 float
0.02430399999999999 0.16425 0.0
0.5913384 0.481878 0.0
1.30475 0.591832 0.0
0.774126 0.951272 0.0
0.04779564148251592 0.1966194329439859 0.0
0.0726092153537953 0.2279866320496896 0.0
0.09876577335895967 0.2582426022760065 0.0
0.1262817198684718 0.2872673048853742 0.0
0.1551671626852806 0.3149288071400502 0.0
0.1854238368919928 0.3410826624766006 0.0
0.2170424591499632 0.3655716640299072 0.0
0.2499995164635996 0.3882263409476824 0.0
0.2842534387828506 0.4088665906889567 0.0
0.3197403359862048 0.4273050841371062 0.0
0.3563695945475563 0.4433531534921038 0.0
0.3940201673622058 0.4568300511916809 0.0
0.4325386107291805 0.4675762214989666 0.0
0.4717406913237268 0.4754709112408955 0.0
0.5114182513144845 0.480453442081874 0.0
0.5513531678859215 0.4825464217651069 0.0
0.6182637923774223 0.5096055604109244 0.0
0.647389101376845 0.5350126187545199 0.0
0.6784752958296183 0.5579802184492302 0.0
0.7112421079139344 0.5784810076698811 0.0
0.7454110434104482 0.5965507527581431 0.0
0.7807301979183381 0.6122562812860965 0.0
0.8169827939052532 0.6256694297140926 0.0
0.853985522124928 0.6368498290413532 0.0
0.8915818964261243 0.6458353363890481 0.0
0.9296339776508085 0.6526379336565091 0.0
0.9680139759519513 0.6572432424840469 0.0
1.006596418266983 0.659612648128084 0.0
1.045251165872634 0.6596877658251245 0.0
1.083837680945672 0.657397570658483 0.0
1.122201320191055 0.6526688455666412 0.0
1.160173053543044 0.6454405726452737 0.0
1.197574286953346 0.6356824063786186 0.0
1.23422961949795 0.6234159704281613 0.0
1.26998758503999 0.6087366500005643 0.0
1.285086682927543 0.6256533177085738 0.0
1.263669745906668 0.6583917156018083 0.0
1.240480125919214 0.6898988493917133 0.0
1.215532715641304 0.7200329197235763 0.0
1.188869833862339 0.7486599839005789 0.0
1.160556835593143 0.7756559317113654 0.0
1.130680194163798 0.8009104211039757 0.0
1.099347083827048 0.8243335727704395 0.0
1.066684425336412 0.8458643604021228 0.0
1.03283497048792 0.8654772531176074 0.0
0.9979492572630678 0.8831824104874066 0.0
0.9621749986495024 0.8990166556695112 0.0
0.9256475378616493 0.9130272060048579 0.0
0.8884846540507749 0.9252538945090274 0.0
0.8507866567183312 0.935715378288671 0.0
0.8126405010322847 0.9444016349017643 0.0
0.7365055179612304 0.9396161853607135 0.0
0.699310855231089 0.9266666891603924 0.0
0.6626179171945521 0.9123577070090924 0.0
0.6264901449910028 0.8966765244755546 0.0
0.5909789825447118 0.8796450886595113 0.0
0.556124897941028 0.8613059841617771 0.0
0.5219601957009091 0.8417124664434518 0.0
0.4885110616878257 0.8209207172498462 0.0
0.4558007060429968 0.7989848675704875 0.0
0.4238520247653796 0.775953675763176 0.0
0.3926900138417566 0.7518687036338616 0.0
0.3623437622133722 0.7267636709390595 0.0
0.3328479550295906 0.7006647540504483 0.0
0.3042438201183181 0.6735915983461908 0.0
0.2765795358619001 0.6455588748284606 0.0
0.2499101143933102 0.6165781952942546 0.0
0.2242967982692083 0.5866601984136335 0.0
0.1998060807431611 0.5558166834807132 0.0
0.1765083808984156 0.5240625786010467 0.0
0.154476512720734 0.491417660368959 0.0
0.133784033184808 0.457907916333494 0.0
0.114503564227142 0.4235664945146766 0.0
0.09670517293008124 0.3884342245925089 0.0
0.0804548910754031 0.3525597611689231 0.0
0.06581337946329963 0.3159993090744527 0.0
0.05283482490365372 0.2788161107032479 0.0
0.0415660226296666 0.2410796291505872 0.0
0.03204569406625649 0.2028646095712164 0.0
0.5272009874003867 0.6419624505772817 0.0
0.7421848286576707 0.7716726266421574 0.0
0.8789503364783713 0.7829234141383637 0.0
0.6149390992905563 0.7449438030688011 0.0
0.4064556042659638 0.5942834991165423 0.0
0.9875021850865396 0.7666507358101158 0.0
0.3188065960661005 0.539594034984892 0.0
0.61365100263957 0.6399487878797632 0.0
0.8049090660915541 0.8464379870891131 0.0
0.7099820328572021 0.6828840522539854 0.0
0.5239467234991928 0.7406922291088611 0.0
0.8154056325591208 0.7211774015928547 0.0
0.6676178829014909 0.8152713180209475 0.0
0.4416080359619968 0.674360953773491 0.0
0.489443615375965 0.5654986742123573 0.0
1.076665773779852 0.7387182918829318 0.0
0.250390543112057 0.4877450112830265 0.0
0.5736819937919005 0.5790366884881447 0.0
0.7263706755366466 0.8615301097563091 0.0
0.940143307772686 0.8233944909985552 0.0
0.927065543677544 0.7236459161626674 0.0
0.8744389806957806 0.8609114380468947 0.0
0.336888362650554 0.6081958070931937 0.0
0.2030757334857187 0.4383942902513459 0.0
0.3861483329720647 0.5255533415902591 0.0
0.5621001921466506 0.7923778419149285 0.0
0.6822897332295245 0.7428043323059399 0.0
0.5764061681675353 0.6881266532454204 0.0
1.129195449682892 0.7163224153578123 0.0
0.8157794419559141 0.7831214907157077 0.0
0.3806644703311284 0.6554275822782399 0.0
0.7695737871052837 0.669593045341503 0.0
0.4699375460410929 0.6217118815516158 0.0
0.6830867370872363 0.630350317562806 0.0
1.040416897214502 0.7929392348941093 0.0
0.4604428393605979 0.7321209818568342 0.0
0.8729552856459739 0.7015083313474691 0.0
1.017010765275644 0.7166925631396708 0.0
0.6458785458483771 0.6946878992565794 0.0
0.7733575582969163 0.8941098392103913 0.0
0.4457537579383052 0.5273353624588528 0.0
0.163830623786951 0.3903175742448083 0.0
0.6095823984734953 0.8256600013628639 0.0
0.2618074352614998 0.5435604438425528 0.0
0.6287880420949764 0.5875838132975476 0.0
0.3100402147222924 0.4835410260423071 0.0
0.5422177893302824 0.5343158927797464 0.0
0.9964262112680041 0.8213447667248638 0.0
0.4971609598823845 0.6906859160718212 0.0
0.5740517260168769 0.633982031239429 0.0
0.7423299505107201 0.7218768583704394 0.0
0.767147744476665 0.819658485932403 0.0
0.9427329070375209 0.7774595780066723 0.0
0.8375285793481674 0.8869398470561132 0.0
0.2879426409425497 0.5872676364411625 0.0
0.6797562629663748 0.8647676397847667 0.0
1.171674168522591 0.6949964056806914 0.0
0.5261010885606964 0.6055079299963303 0.0
0.7081534744446967 0.8078672678314597 0.0
0.9681672688626206 0.705385299758921 0.0
0.7364069054947873 0.6432919177737106 0.0
0.363826821075015 0.5678764295233764 0.0
0.826170216989844 0.6605791783255148 0.0
0.1284439337099834 0.3602715082199688 0.0
0.518140828090112 0.783905985497134 0.0
0.8452908336054504 0.8167586152211004 0.0
0.2015204468558833 0.492088055688788 0.0
0.4005883523205732 0.7121294304856254 0.0
0.3551392316798573 0.4864133323669936 0.0
0.2501727034998737 0.4443035857235296 0.0
0.857938396055507 0.7390317828783199 0.0
0.9245301815433076 0.8668102132501951 0.0
0.5702050292970205 0.7323438487067678 0.0
1.111607633075016 0.759318252473435 0.0
0.6317193755596126 0.7853891653733797 0.0
0.7921381265818805 0.7497379312370454 0.0
1.088942426366261 0.7015435214091311 0.0
0.5818207607488639 0.5352340257544296 0.0
0.4203532416309484 0.6369649631143086 0.0
0.4854818714173937 0.5131439318707094 0.0
0.4475429831528036 0.5690430472086269 0.0
0.8968753306595262 0.8225547516037004 0.0
0.6339557898063448 0.8543470494763272 0.0
0.3416564411796998 0.6516449771136894 0.0
1.082970576264455 0.7856036465430698 0.0
0.2255204648032354 0.5229464838393291 0.0
0.7335043541589261 0.9012744999286941 0.0
0.9097052989734319 0.6921177492721042 0.0
0.5363428275528405 0.6992389299864537 0.0
0.9657777897300287 0.8588269742066746 0.0
1.025947476617909 0.7556651119714124 0.0
0.1090829970454354 0.3226173037985549 0.0
0.4836644525169279 0.7663103281018557 0.0
0.6910856326166581 0.777867529208468 0.0
0.6694391877434097 0.5946719355048008 0.0
0.2954883530575775 0.4501042133334518 0.0
0.6746032498128595 0.6643957640016517 0.0
1.054636636429828 0.6974583960183274 0.0
0.8939255235163368 0.7470597914537064 0.0
0.3749741568555516 0.6190655430398917 0.0
1.204101441114554 0.6801433534918062 0.0
0.6130053345415899 0.6785345531932346 0.0
0.7679719108452487 0.8562682874000032 0.0
0.9710820219997449 0.8008372590855476 0.0
0.1608022352294362 0.4242591696906621 0.0
0.2865399820604418 0.5141369963640697 0.0
0.1962258775846918 0.4008383427744516 0.0
0.6210920174972845 0.5516143721732873 0.0
0.4843009180093644 0.6583977883024127 0.0
0.5695029195102991 0.8267073580550881 0.0
0.9562891163300477 0.7436031251145003 0.0
0.4174190173896447 0.5044019081507806 0.0
0.410860431802698 0.5535781448116232 0.0
0.8709320861791604 0.9002602580953145 0.0
0.427354757192076 0.7399041791280969 0.0
0.7107884943357746 0.7172753954970394 0.0
1.030382288537246 0.8267335242583146 0.0
0.7737440530215844 0.7115751739064536 0.0
0.8042035044852396 0.9123190309183211 0.0
0.0480920891272324 0.2181807374272496 0.0
0.3695079235280397 0.6886893012630373 0.0
0.773516204411121 0.7830673827025234 0.0
0.302776671534508 0.6210168062901616 0.0
0.7150573728414059 0.6149413270404035 0.0
0.5863276441271683 0.769748656022605 0.0
1.143752049005473 0.6780480059671409 0.0
0.6477132714923303 0.7318578097016951 0.0
0.8380052680878572 0.8531154611905379 0.0
0.5966224054445893 0.6051703156405629 0.0
0.3207240819522855 0.5772784374275386 0.0
0.3520131451607586 0.5263918604440553 0.0
0.8573528491808811 0.6709738722470224 0.0
0.1797236573643203 0.460867988842514 0.0
0.5540828191547277 0.6661566975721369 0.0
1.158039843450239 0.7357536542887966 0.0
0.08638006908591334 0.286237566592474 0.0
0.790861820497242 0.6466611559014377 0.0
0.5362079962218838 0.8121454698907893 0.0
0.9405172130232713 0.6862060282668497 0.0
0.6039359324506977 0.711463595189489 0.0
0.4440093493753478 0.6096873538428137 0.0
0.5500746279087338 0.7620941994763282 0.0
0.2578504496023611 0.5739900063885278 0.0
0.502526452350101 0.6209820553182169 0.0
0.6799833858912959 0.7033681517905728 0.0
0.7183487148906835 0.7518430858176317 0.0
0.8006701240044786 0.8118713608014352 0.0
0.1304684854221093 0.3934039266496895 0.0
1.00789495394612 0.7937868725857601 0.0
0.696960396255943 0.893370944718147 0.0
0.8258315165019564 0.7538365084989149 0.0
0.8462950259502577 0.775614153529746 0.0
0.4082018839227037 0.6749460331934272 0.0
0.7025889307788081 0.8378536687159448 0.0
0.4666676520109517 0.6984557076050861 0.0
[...]
POINT_DATA 531

VECTORS Velocity float
0.0000000000000000 1.0000000000000000 0.0
0.0000000000000000 1.0000000000000000 0.0
2.6381882310356115 -0.9593320633486689 0.0
1.7799784153771112 1.0216226449989476 0.0
0.0000000000000000 1.0000000000000000 0.0
0.0000000000000000 1.0000000000000000 0.0
0.0000000000000000 1.0000000000000000 0.0
0.0000000000000000 1.0000000000000000 0.0
0.0000000000000000 1.0000000000000000 0.0
0.0000000000000000 1.0000000000000000 0.0
0.0000000000000000 1.0000000000000000 0.0
0.0000000000000000 1.0000000000000000 0.0
0.0000000000000000 1.0000000000000000 0.0
0.0000000000000000 1.0000000000000000 0.0
0.0000000000000000 1.0000000000000000 0.0
0.0000000000000000 1.0000000000000000 0.0
0.0000000000000000 1.0000000000000000 0.0
0.0000000000000000 1.0000000000000000 0.0
0.0000000000000000 1.0000000000000000 0.0
0.0000000000000000 1.0000000000000000 0.0
0.0000000000000000 0.0000000000000000 0.0
0.0000000000000000 0.0000000000000000 0.0
0.0000000000000000 0.0000000000000000 0.0
0.0000000000000000 0.0000000000000000 0.0
0.0000000000000000 0.0000000000000000 0.0
0.0000000000000000 0.0000000000000000 0.0
0.0000000000000000 0.0000000000000000 0.0
0.0000000000000000 0.0000000000000000 0.0
0.0000000000000000 0.0000000000000000 0.0
0.0000000000000000 0.0000000000000000 0.0
0.0000000000000000 0.0000000000000000 0.0
0.0000000000000000 0.0000000000000000 0.0
0.0000000000000000 0.0000000000000000 0.0
0.0000000000000000 0.0000000000000000 0.0
0.0000000000000000 0.0000000000000000 0.0
0.0000000000000000 0.0000000000000000 0.0
0.0000000000000000 0.0000000000000000 0.0
0.0000000000000000 0.0000000000000000 0.0
0.0000000000000000 0.0000000000000000 0.0
2.6783001664556427 -1.7943024991574124 0.0
3.6707496478902493 -2.3036743820262902 0.0
3.7614764236446576 -2.2273534381936444 0.0
3.7621891093302997 -1.9751295326150919 0.0
3.8522977595327275 -1.7604556896228245 0.0
3.9533692458522824 -1.4589105124746142 0.0
4.0111875340024854 -1.3030866253408777 0.0
4.1322348540491172 -1.0763127033172526 0.0
4.1088869321192103 -0.7783813412417782 0.0
4.0884395053947724 -0.5128906572237447 0.0
3.9538530108324186 -0.2199132326358375 0.0
3.7344903989653448 0.0752318378242782 0.0
3.5487776111517713 0.3050317397495428 0.0
3.1947446805273683 0.5491659887148680 0.0
2.5828310525558127 1.0892396811833209 0.0
1.7538524313915762 0.9441657174544974 0.0
0.0000000000000000 0.0000000000000000 0.0
0.0000000000000000 0.0000000000000000 0.0
0.0000000000000000 0.0000000000000000 0.0
0.0000000000000000 0.0000000000000000 0.0
0.0000000000000000 0.0000000000000000 0.0
0.0000000000000000 0.0000000000000000 0.0
0.0000000000000000 0.0000000000000000 0.0
0.0000000000000000 0.0000000000000000 0.0
0.0000000000000000 0.0000000000000000 0.0
0.0000000000000000 0.0000000000000000 0.0
0.0000000000000000 0.0000000000000000 0.0
0.0000000000000000 0.0000000000000000 0.0
0.0000000000000000 0.0000000000000000 0.0
0.0000000000000000 0.0000000000000000 0.0
0.0000000000000000 0.0000000000000000 0.0
0.0000000000000000 0.0000000000000000 0.0
0.0000000000000000 0.0000000000000000 0.0
0.0000000000000000 0.0000000000000000 0.0
0.0000000000000000 0.0000000000000000 0.0
0.0000000000000000 0.0000000000000000 0.0
0.0000000000000000 0.0000000000000000 0.0
0.0000000000000000 0.0000000000000000 0.0
0.0000000000000000 0.0000000000000000 0.0
0.0000000000000000 0.0000000000000000 0.0
0.0000000000000000 0.0000000000000000 0.0
0.0000000000000000 0.0000000000000000 0.0
0.0000000000000000 0.0000000000000000 0.0
0.0000000000000000 0.0000000000000000 0.0
3.9791852937742678 2.6023078239224731 0.0
4.2863980094339871 2.1254999158870365 0.0
3.9175666253784494 1.1690735825086460 0.0
3.8372552950434997 2.2080463393392646 0.0
3.8163939248049479 2.9213145163886698 0.0
3.4591747276275755 0.0910194389959414 0.0
3.9076813083650568 3.4786144351880846 0.0
3.7595823806770778 2.4429832288501894 0.0
3.7384365573748322 1.9287714281911035 0.0
3.5706637401438464 1.7275574175710029 0.0
2.8519271874626146 1.8140303442830974 0.0
3.3727780489514103 1.3665601269898779 0.0
3.2340299477544416 1.6713467590491022 0.0
3.1627783098171709 2.3529741275408811 0.0
3.2655988951682766 2.5057722299571696 0.0
3.0363138433551051 -0.4878651154063293 0.0
3.6097879437441454 3.8489933454294349 0.0
2.5025190761223337 2.1162324347585781 0.0
2.9237527461260964 1.4033039461977157 0.0
3.9077690278608959 0.5445125364104690 0.0
2.3721235122427888 0.3715546001774886 0.0
3.6550482174621299 1.2179065167927789 0.0
2.7998743991368800 2.6345462635435806 0.0
3.4917090024337805 4.5879939164179495 0.0
3.6291299698537562 2.6433787252384451 0.0
2.2765467404756570 1.3390611317422352 0.0
4.3276475190830848 2.3341541714433913 0.0
4.0057448632789994 2.5831151901838330 0.0
2.8582412331177229 -0.7906155865552471 0.0
4.1144413474465154 1.7830291793314665 0.0
2.5188206309730110 2.0390680144858280 0.0
2.5488875200702616 1.0638424295826023 0.0
3.9207440252476409 2.7296811427998984 0.0
2.7038423801334202 1.3440068573094521 0.0
3.8220192014716590 -0.4028315395293694 0.0
1.9846225641413957 1.4467577653284223 0.0
2.2673909289717256 0.6180385807270247 0.0
2.1177236315817205 0.0486314413150681 0.0
4.1551963626385007 2.4682123303733228 0.0
2.6142445698934034 1.7060050031028260 0.0
2.7996005458823365 2.4535467729446667 0.0
2.9347319890652215 4.7381373571446277 0.0
2.3812628814532064 1.2707917368887420 0.0
2.5248016041786179 2.8802686094396668 0.0
2.1690424260059884 1.6440884218965881 0.0
3.2856925942502055 3.5021424046139149 0.0
1.8169096576060619 1.7690563345350461 0.0
3.9641326320952186 -0.0675459937791898 0.0
3.5041084318062845 2.2793931519001118 0.0
3.8620527630737724 2.5685614616706527 0.0
3.9909155974871067 1.9775868980391846 0.0
4.0438965923738683 2.0779077879033925 0.0
3.6483374304063272 0.4623756840659900 0.0
3.0919819422952424 1.5798937491839009 0.0
1.6455686751512832 1.6779818192996938 0.0
2.2667043631637349 1.0758663218742786 0.0
2.8674539988775840 -1.0455093592645275 0.0
3.7138824467036353 2.5572631885668335 0.0
3.8892837799639364 1.9780217084029281 0.0
1.4482698240313747 0.0794897639495798 0.0
2.0106211248515771 1.0860313841454508 0.0
3.7339713862993378 3.1701298004822731 0.0
1.1245223490522862 0.4450009932347850 0.0
1.8313777768203492 3.2599882931346826 0.0
1.4893264652174996 0.8641787032586451 0.0
3.9756889030066045 1.5545367796129741 0.0
1.8405457054514311 2.2639442810542727 0.0
1.0982793290490684 0.7316588151061597 0.0
2.1217790399423144 2.3898593209060883 0.0
2.7846589155176220 3.3821045781994443 0.0
3.3620675706677039 1.0909229232164703 0.0
3.7776695060617826 0.6593689760726402 0.0
3.5854161098167174 2.2389562856572152 0.0
3.7620672866296845 -1.1155852838945424 0.0
3.3090004467559377 1.7807320261835602 0.0
4.0299542833748951 1.7710700588417185 0.0
1.6506422070918652 -0.3310157627028570 0.0
1.4105799564210133 1.5097392466793633 0.0
3.4457219927031764 2.5977554512943981 0.0
1.2845790614964363 1.8009118533924808 0.0
3.5987025317471217 2.7441296028118298 0.0
3.9119903078272809 1.0746900791733602 0.0
1.4810119307556664 0.7842913600066511 0.0
1.3712739128620492 1.3093398598764348 0.0
3.9109675065242366 -0.9047578967624512 0.0
1.8247656821105538 1.8425520213656217 0.0
1.5197656474108681 0.8470193958892361 0.0
1.2798150243090824 0.1590633412694868 0.0
3.7126084485335387 2.3678768739947205 0.0
3.9647273194405019 0.1734727369795555 0.0
3.1672861696359207 -0.2907876239605712 0.0
1.5934206244442057 3.1018869930004103 0.0
1.2006857946429319 1.0192694875567903 0.0
4.1101250307365769 2.1389752888443114 0.0
1.3125050494370218 0.7943296335202523 0.0
1.5295916453314884 2.7802712001327956 0.0
3.6590901287153246 2.0872668715009572 0.0
1.3419356332857335 -0.2648646929276272 0.0
3.3599630247370831 0.7991821212338027 0.0
3.1591238305633964 2.5005582776415625 0.0
2.6861059612198459 -1.4071751249070892 0.0
4.0729584442178917 2.6042347715674272 0.0
3.4362566437791142 1.9452921241599617 0.0
3.8165090140411451 0.2313593510776731 0.0
2.0000978010803649 3.0559988238228053 0.0
3.6264348312383072 3.6738663769216431 0.0
2.4430742684400029 4.0337932547981357 0.0
0.8454653678996423 0.8028693893624936 0.0
3.7562625921845023 2.5541826004991326 0.0
1.0772516814121236 0.5693990040688951 0.0
2.8936260438763690 0.2599779294256371 0.0
2.1188680168917466 2.2092849766560292 0.0
3.5930720337287450 2.8399747431292557 0.0
3.0879454942953579 1.0471259961024209 0.0
0.8335896502662818 0.6001878090002216 0.0
4.1453305272948437 2.0373419932166446 0.0
4.0838589729321555 -0.4248421612997470 0.0
3.5630481296804426 1.6214496309704132 0.0
2.2827558918283981 1.5777459205607913 0.0
0.7641786060063641 3.4574472037322028 0.0
0.9901139149565737 0.8520647402467194 0.0
4.2362810841048724 1.9951979728875655 0.0
1.3055386666226225 1.0418553311664647 0.0
1.2185172099390693 0.4734767885238081 0.0
3.1447069094872555 1.8614918100939342 0.0
1.4103617829936108 -0.2945562091766627 0.0
4.2538315584878346 2.4412536801417573 0.0
3.7164429018383691 1.6635218854486931 0.0
3.1550084383052837 2.2133725254653860 0.0
2.8942931901598445 3.0020445339431334 0.0
3.9289843528816628 3.2635918098172709 0.0
0.9692073789904520 0.3021816065700793 0.0
1.7261930135450465 2.4100142455990268 0.0
4.0450956193512866 2.5493254407546884 0.0
3.6903162861892520 -1.3957853382216365 0.0
1.2131527027530791 3.3076046395219612 0.0
1.1672827156929046 0.4760900571005191 0.0
0.9599128945505785 0.3831058386534735 0.0
0.9180237367039288 0.0549746594750993 0.0
4.1063145889994086 2.4645115530132737 0.0
3.8293987774738758 2.8488416667003569 0.0
2.7697426214888115 1.6335005450958753 0.0
1.0307464868632856 1.4846831037282606 0.0
3.9455636297208461 2.6504660374759759 0.0
4.1455388138252944 2.3473447950540751 0.0
4.2938958480503580 2.1911330703707330 0.0
4.0735472881976271 1.9077625050207094 0.0
1.6335616809069762 2.3202355269697414 0.0
3.8035403176904410 -0.1411584946399428 0.0
1.2283151263829160 0.6166222889151297 0.0
3.8685247213481704 1.5242085700236421 0.0
3.9491423026676507 1.4041908067126230 0.0
2.5623074115748148 1.7608522199983787 0.0
3.0907988085344340 1.5128279296887552 0.0
3.0767425217227875 2.0931532157503883 0.0
3.0548193564085846 1.9358450137095435 0.0
3.3530478813314750 1.7544540740761954 0.0
4.0040133840616301 2.2594510574043620 0.0
1.0669815063326562 0.1491630089797271 0.0
2.8650209641545117 2.1253338359710177 0.0
2.4378764964694293 0.8517786363609616 0.0
2.7463735185777298 1.9990000579060938 0.0
2.4553856490883463 -0.0331999178892121 0.0
4.1217354633341623 -0.7304228357916697 0.0
0.9397534125808131 0.9566479228343074 0.0
2.3129991871403202 -1.0760974931044121 0.0
4.0542469714453588 2.5890591909387917 0.0
2.8350557469333562 1.4257228937686346 0.0
3.1157705387868573 1.8415816722332607 0.0
3.4917704502666091 3.9779064232610573 0.0
0.5246557507834341 1.6423809208117717 0.0
3.7429639161723545 2.7480240258874802 0.0
1.5482904885917654 1.8407497473147305 0.0
2.9216042199021999 -0.6921050621100328 0.0
3.7892378055391474 0.8282692267568059 0.0
3.6115608122074567 2.4692754337196527 0.0
0.6364392471006148 0.5042076411260781 0.0
1.2009773011440505 2.2396352550933827 0.0
3.1055463846283327 2.7525602624439363 0.0
1.7180341013048328 2.9227483912581280 0.0
1.0175665383794217 1.8908339645113894 0.0
0.8162540398332020 1.5832721715749676 0.0
1.6637228700827444 3.0813954823137348 0.0
1.4433132688161709 1.1758679371812508 0.0
2.1903065188807882 -1.4149012130236243 0.0
2.1219342072832292 1.5803527702131568 0.0
0.6708260466179899 0.2947692429380128 0.0
0.7637463456882310 0.5787427114601074 0.0
3.9192846187358250 3.4627169288651460 0.0
1.2670121163006802 -0.0771607815989927 0.0
3.3484252167124184 0.8369685676833473 0.0
4.0458513295505787 -0.1451662330995215 0.0
3.8815382129434313 2.3958459866613615 0.0
1.1250736630298399 3.3292141561808544 0.0
2.5492431863269203 0.6937652353368780 0.0
0.6001194979834880 0.3614446306699128 0.0
3.4742134694643676 -0.4624883662518194 0.0
3.6831763377529558 2.6500768681639886 0.0
0.7594496635120624 -0.0137912851809328 0.0
2.6051139839197863 -0.2564561734478605 0.0
2.6694169456060255 1.4332442982613955 0.0
3.6937501774067125 -1.7325415166931246 0.0
0.8120479553827944 0.1065802393739130 0.0
2.4427222633244683 1.5448532705958120 0.0
2.8540410742771734 2.4161535158237073 0.0
2.2185058606750498 1.9579732418679070 0.0
3.9042374949982879 2.5340872791726934 0.0
3.7777327726692280 1.9231111048995719 0.0
2.5146542722445120 1.0997134058406972 0.0
3.7089914175766392 3.7865770616360250 0.0
4.1813280296266937 2.1012595820895661 0.0
0.9382362911493126 0.5964230448140115 0.0
3.1438430559533326 3.2365338360030900 0.0
2.7220791338288777 1.6624337344155358 0.0
4.2166656840344414 2.1873608658820642 0.0
4.1378011357588660 2.0038653810851543 0.0
3.0938222378655804 2.1908384374695098 0.0
3.7311826246633522 2.5769858661277585 0.0
1.2612878424371272 -0.7694477668226032 0.0
3.3220830932383993 0.6491893097070629 0.0
3.9653113176742387 0.1588942308150799 0.0
1.6698251952747969 4.0683858945417510 0.0
2.2535964583959154 1.8683470570859229 0.0
0.7082392677757388 0.6018046842091046 0.0
3.9902111652737204 2.5945730499888793 0.0
4.2815878034012949 2.1320832899517330 0.0
3.9175216759947933 1.1819845111234264 0.0
3.8176444471137039 2.1964199869969239 0.0
3.8214983439866530 2.9111999441882608 0.0
3.4596253094374485 0.0971548231055656 0.0
3.9095953310394416 3.4747879707845963 0.0
3.7834789622698417 2.4561382422098110 0.0
3.7164309012750665 1.9371711791000830 0.0
3.5970559027217743 1.7436492587448844 0.0
2.8287005716963090 1.7946063395380503 0.0
3.3931428789923603 1.3807171407389316 0.0
3.2052966537300698 1.6599641693983103 0.0
3.1517996235729768 2.3332393829012141 0.0
3.2862106883363520 2.5021515035766724 0.0
3.0364058109927470 -0.4875897088137739 0.0
3.6097498070416010 3.8491449106849762 0.0
2.5269976534221787 2.1241306555819364 0.0
2.8977802016518179 1.3980653557097060 0.0
3.9016847324723338 0.5525581748433032 0.0
2.3808463294843780 0.3778802651283328 0.0
3.6405674074079504 1.2248068849407461 0.0
2.7986419867486294 2.6274928218718601 0.0
3.4915983614462749 4.5881005153806811 0.0
3.6354475273876821 2.6408074153127661 0.0
2.2503238710689031 1.3237583499840868 0.0
4.3274758426529285 2.3368561697254298 0.0
4.0031180777661284 2.5758765873663787 0.0
2.8581757987522436 -0.7907548052138326 0.0
4.1119026856484906 1.7975727754329589 0.0
2.5122048043910681 2.0269861180287880 0.0
2.5744554739988437 1.0759723466061986 0.0
3.9291659331618147 2.7164709540981149 0.0
2.7328902971670450 1.3591597698369360 0.0
3.8217725243795559 -0.4011950485477215 0.0
1.9662736061214305 1.4309771299204121 0.0
2.2838587762771034 0.6247579175690867 0.0
2.1189355657863982 0.0505498490112051 0.0
4.1674238974939914 2.4760389139827237 0.0
2.5944295533209667 1.7052604398564721 0.0
2.8128825124544945 2.4525895908406454 0.0
2.9347143200909978 4.7381538979152893 0.0
2.3550371340881529 1.2571525079117671 0.0
2.5253147186433873 2.8800027281050458 0.0
2.1935791808843450 1.6605655696945654 0.0
3.2861110477199458 3.5015137582999145 0.0
1.8369870394275123 1.7717462250716491 0.0
3.9613500929918861 -0.0637345048172217 0.0
3.4888223888284386 2.2596128074415853 0.0
3.8820786679697146 2.5709670372756537 0.0
4.0094798129629430 1.9898992873847365 0.0
4.0227833276945715 2.0824519777340900 0.0
3.6475075836249671 0.4710535031319701 0.0
3.0785983166274309 1.5832077732441239 0.0
1.6453838878068614 1.6764174648094381 0.0
2.2415599174876926 1.0665544739492590 0.0
2.8674212063948792 -1.0456107368688123 0.0
3.7334708593406605 2.5557070917846438 0.0
3.8640502652039626 1.9715734769993436 0.0
1.4528905602879159 0.0831332246402220 0.0
2.0342195856286724 1.0982238901199934 0.0
3.7371735303121456 3.1634068861667757 0.0
1.1390588254216438 0.4511072148597995 0.0
1.8313750596453968 3.2599926768751128 0.0
1.4706330083153119 0.8520710980189230 0.0
3.9635591346563275 1.5666162523053289 0.0
1.8406241855643937 2.2642470720710923 0.0
1.0895928804877137 0.7235974486124020 0.0
2.1243438876392355 2.3888278430839152 0.0
2.7843045031018394 3.3820898565011248 0.0
3.3747128008142444 1.1038028860802744 0.0
3.7699056144357295 0.6643299024369654 0.0
3.5662535839870362 2.2224743849909188 0.0
3.7622405182938405 -1.1158118923493123 0.0
3.2809308399833848 1.7671709928878088 0.0
4.0408940581806716 1.7849038195962246 0.0
1.6503517316253138 -0.3310805830242992 0.0
1.4272423237268903 1.5164744388229852 0.0
3.4430972208743578 2.5830319814182618 0.0
1.2962407801822469 1.8015329333474270 0.0
3.6119228497360969 2.7370413019294610 0.0
3.9029467427793465 1.0858974913148602 0.0
1.4612085446869507 0.7746034672668879 0.0
1.3677086808291283 1.3032139410883636 0.0
3.9112407558356610 -0.9046081959051832 0.0
1.8250116143610955 1.8428294103501066 0.0
1.5052797021516988 0.8445407731323317 0.0
1.2885912147251772 0.1630453093218588 0.0
3.6980467496527214 2.3521084993293777 0.0
3.9606170219791452 0.1765280612494417 0.0
3.1678281236824430 -0.2876842812060859 0.0
1.5934210547536194 3.1018861862651570 0.0
1.1847972540154552 1.0051982900975633 0.0
4.0916249892992180 2.1346329109213240 0.0
1.3321041283281567 0.8057375517939728 0.0
1.5292784378351183 2.7801348619463191 0.0
3.6860592755356971 2.1025270419484787 0.0
1.3418772419161409 -0.2644172269198801 0.0
3.3660640806709456 0.8104870736538545 0.0
3.1581180069671961 2.4887300631735165 0.0
2.6861044442986821 -1.4071842146931979 0.0
4.0845118366266426 2.6090648589783449 0.0
3.4106729336032955 1.9455703547583898 0.0
3.8139440956473738 0.2374480760320539 0.0
2.0000768557637807 3.0560672244571383 0.0
3.6270529760984913 3.6728602310411653 0.0
2.4430024759740512 4.0338169115099527 0.0
0.8583574698145096 0.8131433701937114 0.0
3.7529925983648624 2.5367550715582401 0.0
1.0606883500205757 0.5608520551712580 0.0
2.8978471522219142 0.2666186290725934 0.0
2.1263891397698926 2.2088272503674453 0.0
3.6028317920882760 2.8343282117973421 0.0
3.0788804767142706 1.0506841638801161 0.0
0.8239217678904309 0.5919492037121065 0.0
4.1620352112700463 2.0490313760277217 0.0
4.0829078864646142 -0.4235314291397901 0.0
3.5858156552446236 1.6359106796234248 0.0
2.2722678508155045 1.5782874624678240 0.0
0.7641786060063642 3.4574472037322033 0.0
0.9841913756023588 0.8448654509996832 0.0
4.2300954417122263 2.0053683975238115 0.0
1.3045711018132997 1.0394001120264666 0.0
1.2378590791514934 0.4820192397915741 0.0
3.1167624304647403 1.8452532228525684 0.0
1.4102299161222691 -0.2945831897205625 0.0
4.2516311773535307 2.4417847767949521 0.0
3.6970085043895105 1.6704983846263686 0.0
3.1820819720241920 2.2256193300660345 0.0
2.8938809194972097 2.9970397808832154 0.0
3.9331564217104895 3.2606767271207060 0.0
0.9809144348563098 0.3064042574846530 0.0
1.7262053084935076 2.4101778527560436 0.0
4.0493436623851746 2.5426521035087095 0.0
3.6903744984137812 -1.3959561317841549 0.0
1.2131529600763007 3.3076046446101852 0.0
1.1836838797776637 0.4833622011127812 0.0
0.9436812910038770 0.3759412455358169 0.0
0.9243027678789648 0.0569995292842273 0.0
4.1022173199557388 2.4584762786306649 0.0
3.8368687496185632 2.8352331834113293 0.0
2.7435999023875666 1.6160196432596423 0.0
1.0309003180695160 1.4841578929525761 0.0
3.9568536800579230 2.6396118341297363 0.0
4.1609265278652847 2.3578336046926571 0.0
4.2962742328251782 2.1966913998667232 0.0
4.0574834474119585 1.9183176029783555 0.0
1.6335543942921213 2.3202492074370915 0.0
3.8026415346581786 -0.1368855001540523 0.0
1.2138453271934810 0.6111626875538900 0.0
3.8777731327314124 1.5388676247011204 0.0
3.9496365073032949 1.4202085759210434 0.0
2.5526744992915513 1.7472326482872755 0.0
3.0626810151443853 1.5062637944927824 0.0
3.0608791585304971 2.0737438995126452 0.0
3.0843952486962660 1.9531012559169205 0.0
3.3802756793138182 1.7687606615403328 0.0
3.9834880560078036 2.2524532523374603 0.0
1.0692121277281921 0.1504467054143550 0.0
2.8896863025807158 2.1262152991052989 0.0
2.4580183379855871 0.8627113032520508 0.0
2.7256683510266377 1.9803653966630355 0.0
2.4582543655622131 -0.0287800396387643 0.0
4.1217000894099129 -0.7300663295424086 0.0
0.9399772165933615 0.9567711820294924 0.0
2.3130001116244845 -1.0760948020518866 0.0