# vtk DataFile Version 3.0
LucasCarvalhoTCC Results
ASCII

DATASET POLYDATA
FIELD FieldData 1
TIME 1 1 double
5.6000000000000005

POINTS 531 float
0.02430399999999999 0.16425 0.0
0.5913384 0.481878 0.0
1.30475 0.591832 0.0
0.774126 0.951272 0.0
0.04779564148251592 0.1966194329439859 0.0
0.0726092153537953 0.2279866320496896 0.0
0.09876577335895967 0.2582426022760065 0.0
0.1262817198684718 0.2872673048853742 0.0
0.1551671626852806 0.3149288071400502 0.0
0.1854238368919928 0.3410826624766006 0.0
0.2170424591499632 0.3655716640299072 0.0
0.2499995164635996 0.3882263409476824 0.0
0.2842534387828506 0.4088665906889567 0.0
0.3197403359862048 0.4273050841371062 0.0
0.3563695945475563 0.4433531534921038 0.0
0.3940201673622058 0.4568300511916809 0.0
0.4325386107291805 0.4675762214989666 0.0
0.4717406913237268 0.4754709112408955 0.0
0.5114182513144845 0.480453442081874 0.0
0.5513531678859215 0.4825464217651069 0.0
0.6182637923774223 0.5096055604109244 0.0
0.647389101376845 0.5350126187545199 0.0
0.6784752958296183 0.5579802184492302 0.0
0.7112421079139344 0.5784810076698811 0.0
0.7454110434104482 0.5965507527581431 0.0
0.7807301979183381 0.6122562812860965 0.0
0.8169827939052532 0.6256694297140926 0.0
0.853985522124928 0.6368498290413532 0.0
0.8915818964261243 0.6458353363890481 0.0
0.9296339776508085 0.6526379336565091 0.0
0.9680139759519513 0.6572432424840469 0.0
1.006596418266983 0.659612648128084 0.0
1.045251165872634 0.6596877658251245 0.0
1.083837680945672 0.657397570658483 0.0
1.122201320191055 0.6526688455666412 0.0
1.160173053543044 0.6454405726452737 0.0
1.197574286953346 0.6356824063786186 0.0
1.23422961949795 0.6234159704281613 0.0
1.26998758503999 0.6087366500005643 0.0
1.285086682927543 0.6256533177085738 0.0
1.263669745906668 0.6583917156018083 0.0
1.240480125919214 0.6898988493917133 0.0
1.215532715641304 0.7200329197235763 0.0
1.188869833862339 0.7486599839005789 0.0
1.160556835593143 0.7756559317113654 0.0
1.130680194163798 0.8009104211039757 0.0
1.099347083827048 0.8243335727704395 0.0
1.066684425336412 0.8458643604021228 0.0
1.03283497048792 0.8654772531176074 0.0
0.9979492572630678 0.8831824104874066 0.0
0.9621749986495024 0.8990166556695112 0.0
0.9256475378616493 0.9130272060048579 0.0
0.8884846540507749 0.9252538945090274 0.0
0.8507866567183312 0.935715378288671 0.0
0.8126405010322847 0.9444016349017643 0.0
0.7365055179612304 0.9396161853607135 0.0
0.699310855231089 0.9266666891603924 0.0
0.6626179171945521 0.9123577070090924 0.0
0.6264901449910028 0.8966765244755546 0.0
0.5909789825447118 0.8796450886595113 0.0
0.556124897941028 0.8613059841617771 0.0
0.5219601957009091 0.8417124664434518 0.0
0.4885110616878257 0.8209207172498462 0.0
0.4558007060429968 0.7989848675704875 0.0
0.4238520247653796 0.775953675763176 0.0
0.3926900138417566 0.7518687036338616 0.0
0.3623437622133722 0.7267636709390595 0.0
0.3328479550295906 0.7006647540504483 0.0
0.3042438201183181 0.6735915983461908 0.0
0.2765795358619001 0.6455588748284606 0.0
0.2499101143933102 0.6165781952942546 0.0
0.2242967982692083 0.5866601984136335 0.0
0.1998060807431611 0.5558166834807132 0.0
0.1765083808984156 0.5240625786010467 0.0
0.154476512720734 0.491417660368959 0.0
0.133784033184808 0.457907916333494 0.0
0.114503564227142 0.4235664945146766 0.0
0.09670517293008124 0.3884342245925089 0.0
0.0804548910754031 0.3525597611689231 0.0
0.06581337946329963 0.3159993090744527 0.0
0.05283482490365372 0.2788161107032479 0.0
0.0415660226296666 0.2410796291505872 0.0
0.03204569406625649 0.2028646095712164 0.0
0.5272009874003867 0.6419624505772817 0.0
0.7421848286576707 0.7716726266421574 0.0
0.8789503364783713 0.7829234141383637 0.0
0.6149390992905563 0.7449438030688011 0.0
0.4064556042659638 0.5942834991165423 0.0
0.9875021850865396 0.7666507358101158 0.0
0.3188065960661005 0.539594034984892 0.0
0.61365100263957 0.6399487878797632 0.0
0.8049090660915541 0.8464379870891131 0.0
0.7099820328572021 0.6828840522539854 0.0
0.5239467234991928 0.7406922291088611 0.0
0.8154056325591208 0.7211774015928547 0.0
0.6676178829014909 0.8152713180209475 0.0
0.4416080359619968 0.674360953773491 0.0
0.489443615375965 0.5654986742123573 0.0
1.076665773779852 0.7387182918829318 0.0
0.250390543112057 0.4877450112830265 0.0
0.5736819937919005 0.5790366884881447 0.0
0.7263706755366466 0.8615301097563091 0.0
0.940143307772686 0.8233944909985552 0.0
0.927065543677544 0.7236459161626674 0.0
0.8744389806957806 0.8609114380468947 0.0
0.336888362650554 0.6081958070931937 0.0
0.2030757334857187 0.4383942902513459 0.0
0.3861483329720647 0.5255533415902591 0.0
0.5621001921466506 0.7923778419149285 0.0
0.6822897332295245 0.7428043323059399 0.0
0.5764061681675353 0.6881266532454204 0.0
1.129195449682892 0.7163224153578123 0.0
0.8157794419559141 0.7831214907157077 0.0
0.3806644703311284 0.6554275822782399 0.0
0.7695737871052837 0.669593045341503 0.0
0.4699375460410929 0.6217118815516158 0.0
0.6830867370872363 0.630350317562806 0.0
1.040416897214502 0.7929392348941093 0.0
0.4604428393605979 0.7321209818568342 0.0
0.8729552856459739 0.7015083313474691 0.0
1.017010765275644 0.7166925631396708 0.0
0.6458785458483771 0.6946878992565794 0.0
0.7733575582969163 0.8941098392103913 0.0
0.4457537579383052 0.5273353624588528 0.0
0.163830623786951 0.3903175742448083 0.0
0.6095823984734953 0.8256600013628639 0.0
0.2618074352614998 0.5435604438425528 0.0
0.6287880420949764 0.5875838132975476 0.0
0.3100402147222924 0.4835410260423071 0.0
0.5422177893302824 0.5343158927797464 0.0
0.9964262112680041 0.8213447667248638 0.0
0.4971609598823845 0.6906859160718212 0.0
0.5740517260168769 0.633982031239429 0.0
0.7423299505107201 0.7218768583704394 0.0
0.767147744476665 0.819658485932403 0.0
0.9427329070375209 0.7774595780066723 0.0
0.8375285793481674 0.8869398470561132 0.0
0.2879426409425497 0.5872676364411625 0.0
0.6797562629663748 0.8647676397847667 0.0
1.171674168522591 0.6949964056806914 0.0
0.5261010885606964 0.6055079299963303 0.0
0.7081534744446967 0.8078672678314597 0.0
0.9681672688626206 0.705385299758921 0.0
0.7364069054947873 0.6432919177737106 0.0
0.363826821075015 0.5678764295233764 0.0
0.826170216989844 0.6605791783255148 0.0
0.1284439337099834 0.3602715082199688 0.0
0.518140828090112 0.783905985497134 0.0
0.8452908336054504 0.8167586152211004 0.0
0.2015204468558833 0.492088055688788 0.0
0.4005883523205732 0.7121294304856254 0.0
0.3551392316798573 0.4864133323669936 0.0
0.2501727034998737 0.4443035857235296 0.0
0.857938396055507 0.7390317828783199 0.0
0.9245301815433076 0.8668102132501951 0.0
0.5702050292970205 0.7323438487067678 0.0
1.111607633075016 0.759318252473435 0.0
0.6317193755596126 0.7853891653733797 0.0
0.7921381265818805 0.7497379312370454 0.0
1.088942426366261 0.7015435214091311 0.0
0.5818207607488639 0.5352340257544296 0.0
0.4203532416309484 0.6369649631143086 0.0
0.4854818714173937 0.5131439318707094 0.0
0.4475429831528036 0.5690430472086269 0.0
0.8968753306595262 0.8225547516037004 0.0
0.6339557898063448 0.8543470494763272 0.0
0.3416564411796998 0.6516449771136894 0.0
1.082970576264455 0.7856036465430698 0.0
0.2255204648032354 0.5229464838393291 0.0
0.7335043541589261 0.9012744999286941 0.0
0.9097052989734319 0.6921177492721042 0.0
0.5363428275528405 0.6992389299864537 0.0
0.9657777897300287 0.8588269742066746 0.0
1.025947476617909 0.7556651119714124 0.0
0.1090829970454354 0.3226173037985549 0.0
0.4836644525169279 0.7663103281018557 0.0
0.6910856326166581 0.777867529208468 0.0
0.6694391877434097 0.5946719355048008 0.0
0.2954883530575775 0.4501042133334518 0.0
0.6746032498128595 0.6643957640016517 0.0
1.054636636429828 0.6974583960183274 0.0
0.8939255235163368 0.7470597914537064 0.0
0.3749741568555516 0.6190655430398917 0.0
1.204101441114554 0.6801433534918062 0.0
0.6130053345415899 0.6785345531932346 0.0
0.7679719108452487 0.8562682874000032 0.0
0.9710820219997449 0.8008372590855476 0.0
0.1608022352294362 0.4242591696906621 0.0
0.2865399820604418 0.5141369963640697 0.0
0.1962258775846918 0.4008383427744516 0.0
0.6210920174972845 0.5516143721732873 0.0
0.4843009180093644 0.6583977883024127 0.0
0.5695029195102991 0.8267073580550881 0.0
0.9562891163300477 0.7436031251145003 0.0
0.4174190173896447 0.5044019081507806 0.0
0.410860431802698 0.5535781448116232 0.0
0.8709320861791604 0.9002602580953145 0.0
0.427354757192076 0.7399041791280969 0.0
0.7107884943357746 0.7172753954970394 0.0
1.030382288537246 0.8267335242583146 0.0
0.7737440530215844 0.7115751739064536 0.0
0.8042035044852396 0.9123190309183211 0.0
0.0480920891272324 0.2181807374272496 0.0
0.3695079235280397 0.6886893012630373 0.0
0.773516204411121 0.7830673827025234 0.0
0.302776671534508 0.6210168062901616 0.0
0.7150573728414059 0.6149413270404035 0.0
0.5863276441271683 0.769748656022605 0.0
1.143752049005473 0.6780480059671409 0.0
0.6477132714923303 0.7318578097016951 0.0
0.8380052680878572 0.8531154611905379 0.0
0.5966224054445893 0.6051703156405629 0.0
0.3207240819522855 0.5772784374275386 0.0
0.3520131451607586 0.5263918604440553 0.0
0.8573528491808811 0.6709738722470224 0.0
0.1797236573643203 0.460867988842514 0.0
0.5540828191547277 0.6661566975721369 0.0
1.158039843450239 0.7357536542887966 0.0
0.08638006908591334 0.286237566592474 0.0
0.790861820497242 0.6466611559014377 0.0
0.5362079962218838 0.8121454698907893 0.0
0.9405172130232713 0.6862060282668497 0.0
0.6039359324506977 0.711463595189489 0.0
0.4440093493753478 0.6096873538428137 0.0
0.5500746279087338 0.7620941994763282 0.0
0.2578504496023611 0.5739900063885278 0.0
0.502526452350101 0.6209820553182169 0.0
0.6799833858912959 0.7033681517905728 0.0
0.7183487148906835 0.7518430858176317 0.0
0.8006701240044786 0.8118713608014352 0.0
0.1304684854221093 0.3934039266496895 0.0
1.00789495394612 0.7937868725857601 0.0
0.696960396255943 0.893370944718147 0.0
0.8258315165019564 0.7538365084989149 0.0
0.8462950259502577 0.775614153529746 0.0
0.4082018839227037 0.6749460331934272 0.0
0.7025889307788081 0.8378536687159448 0.0
0.4666676520109517 0.6984557076050861 0.0
[...]
POINT_DATA 531

VECTORS Velocity float
0.0000000000000000 1.0000000000000000 0.0
0.0000000000000000 1.0000000000000000 0.0
2.6381916850731870 -0.9593293961802208 0.0
1.7836147693247317 1.0218497186450821 0.0
0.0000000000000000 1.0000000000000000 0.0
0.0000000000000000 1.0000000000000000 0.0
0.0000000000000000 1.0000000000000000 0.0
0.0000000000000000 1.0000000000000000 0.0
0.0000000000000000 1.0000000000000000 0.0
0.0000000000000000 1.0000000000000000 0.0
0.0000000000000000 1.0000000000000000 0.0
0.0000000000000000 1.0000000000000000 0.0
0.0000000000000000 1.0000000000000000 0.0
0.0000000000000000 1.0000000000000000 0.0
0.0000000000000000 1.0000000000000000 0.0
0.0000000000000000 1.0000000000000000 0.0
0.0000000000000000 1.0000000000000000 0.0
0.0000000000000000 1.0000000000000000 0.0
0.0000000000000000 1.0000000000000000 0.0
0.0000000000000000 1.0000000000000000 0.0
0.0000000000000000 0.0000000000000000 0.0
0.0000000000000000 0.0000000000000000 0.0
0.0000000000000000 0.0000000000000000 0.0
0.0000000000000000 0.0000000000000000 0.0
0.0000000000000000 0.0000000000000000 0.0
0.0000000000000000 0.0000000000000000 0.0
0.0000000000000000 0.0000000000000000 0.0
0.0000000000000000 0.0000000000000000 0.0
0.0000000000000000 0.0000000000000000 0.0
0.0000000000000000 0.0000000000000000 0.0
0.0000000000000000 0.0000000000000000 0.0
0.0000000000000000 0.0000000000000000 0.0
0.0000000000000000 0.0000000000000000 0.0
0.0000000000000000 0.0000000000000000 0.0
0.0000000000000000 0.0000000000000000 0.0
0.0000000000000000 0.0000000000000000 0.0
0.0000000000000000 0.0000000000000000 0.0
0.0000000000000000 0.0000000000000000 0.0
0.0000000000000000 0.0000000000000000 0.0
2.6783013132449645 -1.7943044775571757 0.0
3.6707020043608658 -2.3036374551012289 0.0
3.7614832107452614 -2.2271893775344047 0.0
3.7623936536597449 -1.9754915622679803 0.0
3.8548257807385315 -1.7626694092267230 0.0
3.9610823332309688 -1.4648496733562277 0.0
4.0241139159363692 -1.3143801549514909 0.0
4.1554615926668657 -1.0921475208028568 0.0
4.1475902320033295 -0.8014596493469301 0.0
4.1348230983994814 -0.5381758120667139 0.0
4.0046578478998374 -0.2440393634169195 0.0
3.7844077951138928 0.0549101824508086 0.0
3.5933824335776703 0.2874760269186952 0.0
3.2283630094283131 0.5378822490989802 0.0
2.6008159806460487 1.0886115926278892 0.0
1.7562520490964677 0.9395734704186059 0.0
0.0000000000000000 0.0000000000000000 0.0
0.0000000000000000 0.0000000000000000 0.0
0.0000000000000000 0.0000000000000000 0.0
0.0000000000000000 0.0000000000000000 0.0
0.0000000000000000 0.0000000000000000 0.0
0.0000000000000000 0.0000000000000000 0.0
0.0000000000000000 0.0000000000000000 0.0
0.0000000000000000 0.0000000000000000 0.0
0.0000000000000000 0.0000000000000000 0.0
0.0000000000000000 0.0000000000000000 0.0
0.0000000000000000 0.0000000000000000 0.0
0.0000000000000000 0.0000000000000000 0.0
0.0000000000000000 0.0000000000000000 0.0
0.0000000000000000 0.0000000000000000 0.0
0.0000000000000000 0.0000000000000000 0.0
0.0000000000000000 0.0000000000000000 0.0
0.0000000000000000 0.0000000000000000 0.0
0.0000000000000000 0.0000000000000000 0.0
0.0000000000000000 0.0000000000000000 0.0
0.0000000000000000 0.0000000000000000 0.0
0.0000000000000000 0.0000000000000000 0.0
0.0000000000000000 0.0000000000000000 0.0
0.0000000000000000 0.0000000000000000 0.0
0.0000000000000000 0.0000000000000000 0.0
0.0000000000000000 0.0000000000000000 0.0
0.0000000000000000 0.0000000000000000 0.0
0.0000000000000000 0.0000000000000000 0.0
0.0000000000000000 0.0000000000000000 0.0
3.9952627983349349 2.6035933231209047 0.0
4.2946109765567817 2.1524900526140196 0.0
3.9117893799129453 1.1818560394036115 0.0
3.8351906466874386 2.2068209907635645 0.0
3.8192487259389183 2.9207366449445784 0.0
3.4366236572846778 0.0779795162825845 0.0
3.9084127836758484 3.4770343034059814 0.0
3.7749373402049655 2.4453601674127752 0.0
3.7519357169595176 1.9558403073754682 0.0
3.5752800665620290 1.7367664853344513 0.0
2.8421381325628423 1.8018602495131146 0.0
3.3535944596518945 1.3774619065265064 0.0
3.2211107275407946 1.6703032349183471 0.0
3.1614105468475189 2.3467062302741146 0.0
3.2675357329072914 2.5106079253770610 0.0
3.0240021010594482 -0.4974862411937730 0.0
3.6099088230781344 3.8487874818098162 0.0
2.5021282248292080 2.1151102430065625 0.0
2.9142341604447903 1.4067103963974579 0.0
3.9249943032016130 0.5410209446047839 0.0
2.3336463896925803 0.3670977131161745 0.0
3.6812512672985043 1.2294192985100516 0.0
2.7989832481915888 2.6316346959867589 0.0
3.4916839252131324 4.5880080248536741 0.0
3.6313350248380680 2.6434423687472917 0.0
2.2595387590050402 1.3286584673006852 0.0
4.3366692161053804 2.3498650118653783 0.0
4.0183508486488835 2.5831912905456957 0.0
2.8527984780643552 -0.7929151988843370 0.0
4.1189633132377397 1.8094667897668806 0.0
2.5165097981968496 2.0344261897673581 0.0
2.5397728744660459 1.0677800557533181 0.0
3.9304962913502921 2.7322312883991802 0.0
2.7078780168105014 1.3442306426285231 0.0
3.8237952928596468 -0.4246561670796356 0.0
1.9754200012979664 1.4381626764396334 0.0
2.2350443380198541 0.6137487709016426 0.0
2.0920329808369766 0.0418161349409878 0.0
4.1698590336022576 2.4768123942713536 0.0
2.6124493351393170 1.7123851950966662 0.0
2.8011327150672463 2.4552880815819904 0.0
2.9347233223791345 4.7381425266732178 0.0
2.3648845986272677 1.2621911251361391 0.0
2.5248356255000508 2.8797440222268325 0.0
2.1691257377193871 1.6411178384541483 0.0
3.2863235448912769 3.5019625318782621 0.0
1.8126628084346628 1.7688462698042986 0.0
3.9839839298633417 -0.0882490768653674 0.0
3.5045154233891549 2.2710307859866155 0.0
3.8795199159881766 2.5708518938512710 0.0
3.9932386599232972 1.9988816859897851 0.0
4.0533799413476190 2.1043076067417563 0.0
3.6329848079643603 0.4560196165897301 0.0
3.1125770136706401 1.5931047144954236 0.0
1.6451496406229311 1.6770432075155843 0.0
2.2514911155452793 1.0713691094751279 0.0
2.8657194907729542 -1.0477065445440468 0.0
3.7245841575577958 2.5609101253327746 0.0
3.8870324899901005 1.9881742651487193 0.0
1.4211197956166066 0.0751509508548096 0.0
2.0093545523985914 1.0909829915007172 0.0
3.7350916265858696 3.1685297044920402 0.0
1.1119831130946511 0.4429931523845697 0.0
1.8313768981700431 3.2599900228768321 0.0
1.4787174935029990 0.8563774219443617 0.0
3.9901542178774729 1.5765754147424174 0.0
1.8405631685738053 2.2639586964696385 0.0
1.0945884960938876 0.7279371987267947 0.0
2.1230790014731475 2.3896627237839754 0.0
2.7846720166080896 3.3820555707550382 0.0
3.3356734490158213 1.0966240766151798 0.0
3.8160662630580604 0.6550628564853982 0.0
3.5831231125950587 2.2313745804810261 0.0
3.7620551288781439 -1.1250600734726692 0.0
3.2958597597787058 1.7759315035987777 0.0
4.0269657208635889 1.7945326088159128 0.0
1.6422449933032410 -0.3332684249901565 0.0
1.4070753189920659 1.5081986850941722 0.0
3.4470671339803731 2.5941759509443365 0.0
1.2838660288492676 1.8019743936746295 0.0
3.6019285616411940 2.7474534479151012 0.0
3.9301903152606017 1.0854895051908711 0.0
1.4694302746329855 0.7785844917861762 0.0
1.3698353064610238 1.3068615309107630 0.0
3.9149659759657407 -0.9250641887661276 0.0
1.8248112556672240 1.8424511460638613 0.0
1.5140848485245240 0.8479954127075654 0.0
1.2545885733713775 0.1580747970095785 0.0
3.7157525297983440 2.3613358476430331 0.0
4.0085763381816344 0.1570901832859561 0.0
3.1465133505669138 -0.3072677340195671 0.0
1.5934208488590793 3.1018866410297026 0.0
1.1927239641001732 1.0114745636221192 0.0
4.1106315405382450 2.1513553657366740 0.0
1.3133775776046517 0.7936131817164480 0.0
1.5297386721364621 2.7802533006657408 0.0
3.6695158986516403 2.0939427327547748 0.0
1.3299498719415033 -0.2678462206295393 0.0
3.3297219620744403 0.8001984333465690 0.0
3.1586160536160279 2.4966886081293436 0.0
2.6858738350396880 -1.4076203460180958 0.0
4.0900122948496094 2.6108184355072854 0.0
3.4381140835163917 1.9618726949670662 0.0
3.8164898514347900 0.2198809195134493 0.0
2.0000907672379964 3.0560225770303684 0.0
3.6268850968445729 3.6731843888121505 0.0
2.4430471556751154 4.0338017189570898 0.0
0.8440540696284433 0.8005894789112397 0.0
3.7634971512592137 2.5513854060485288 0.0
1.0672730864458662 0.5641779502919544 0.0
2.8581803865636988 0.2522153405332574 0.0
2.1206539449241335 2.2101401109084500 0.0
3.5955959536448052 2.8409035823411179 0.0
3.1151168178132052 1.0495641261746393 0.0
0.8291424631968205 0.5959491839623765 0.0
4.1525085095743393 2.0538323276769623 0.0
4.1115226751726324 -0.4506582052116262 0.0
3.5552705764086339 1.6366736998009255 0.0
2.2895048467714711 1.5823573088985525 0.0
0.7641786055446050 3.4574472034277570 0.0
0.9877075515810765 0.8490705493288011 0.0
4.2454927317017583 2.0244383787429436 0.0
1.3049194544888925 1.0407270945929115 0.0
1.2196669645400695 0.4745398843646011 0.0
3.1308369392981490 1.8528798700910394 0.0
1.4072954035609253 -0.2951381508581593 0.0
4.2638817557681508 2.4502726128502630 0.0
3.7361078400610661 1.6827666358162285 0.0
3.1623046197160702 2.2121562141147004 0.0
2.8937657403699655 2.9998607734159011 0.0
3.9309666473007692 3.2629045077626984 0.0
0.9537672820374350 0.2996529499982347 0.0
1.7262025093937186 2.4100521803121606 0.0
4.0618032124955485 2.5487829227683525 0.0
3.6905026225634194 -1.4017279630945068 0.0
1.2131528338037818 3.3076046100167353 0.0
1.1595136731900337 0.4747781162025650 0.0
0.9507537742456720 0.3793334534121077 0.0
0.8985942782616659 0.0540165355674291 0.0
4.1170773972195285 2.4668892653339212 0.0
3.8346430130735039 2.8501036238190287 0.0
2.7561897883246576 1.6221614247118192 0.0
1.0306312399555910 1.4841722737046785 0.0
3.9578545801770195 2.6531755860383415 0.0
4.1573437928491108 2.3605153331114459 0.0
4.3016359783508804 2.2134754351923500 0.0
4.0859720749701207 1.9380677700975024 0.0
1.6335571353769616 2.3202414714214092 0.0
3.8022699594047902 -0.1628746774422341 0.0
1.2208994763494121 0.6146797067019495 0.0
3.8588235201659509 1.5411492878075101 0.0
3.9446857105774105 1.4219408100221491 0.0
2.5593154173211770 1.7546446661315493 0.0
3.0805393800400021 1.5169122182843955 0.0
3.0741497761774688 2.0849399590675146 0.0
3.0613273856902041 1.9366098971066514 0.0
3.3510213226670529 1.7686258159510593 0.0
4.0016244350079102 2.2660809812568412 0.0
1.0485460434127905 0.1449361303820886 0.0
2.8652246936304495 2.1269464164934506 0.0
2.4095409146096709 0.8506067537362739 0.0
2.7386246042827986 1.9895897787816377 0.0
2.4227387545687895 -0.0420299156619451 0.0
4.1412914518335642 -0.7571951289283453 0.0
0.9397239650681913 0.9564743129464501 0.0
2.3130035249688916 -1.0760758415063634 0.0
4.0739090585847304 2.5923141692353231 0.0
2.8380354387351789 1.4286540864924269 0.0
3.1252950986725101 1.8598701777871747 0.0
3.4918115133862297 3.9778905728576621 0.0
0.5223216596996115 1.6424139788753811 0.0
3.7484447071129443 2.7530899249181564 0.0
1.5499871218865533 1.8408814690475714 0.0
2.9141178284614981 -0.6993934322941449 0.0
3.7808049445105700 0.8301711233243682 0.0
3.6221661889377565 2.4717738717749733 0.0
0.6322140300771707 0.4998886321865661 0.0
1.2012415172806969 2.2395474709191689 0.0
3.1056057178676362 2.7513045894729373 0.0
1.7179989707239613 2.9227339315919840 0.0
1.0184838178045039 1.8916003277038094 0.0
0.8138773569063545 1.5835261974423132 0.0
1.6637099227957814 3.0813956783131919 0.0
1.4417910475236240 1.1789639963152718 0.0
2.1903307985744829 -1.4148699486712117 0.0
2.1159079922372790 1.5721999858375761 0.0
0.6642970756574157 0.2929489724126628 0.0
0.7629617347118449 0.5774238328738749 0.0
3.9207045360549406 3.4620617858095937 0.0
1.2628658775958486 -0.0780677194266730 0.0
3.3841112488696790 0.8360728575310724 0.0
4.0877932732471169 -0.1696008440798456 0.0
3.8964684913753866 2.4010482453936168 0.0
1.1250736444568232 3.3292141645121385 0.0
2.5110427976061676 0.6920534801155859 0.0
0.5941762756805173 0.3574922371809177 0.0
3.4629949712690125 -0.4820309019873337 0.0
3.6876132532200483 2.6470293609376601 0.0
0.7469443252052702 -0.0153507024912009 0.0
2.5846223268349093 -0.2675999654120446 0.0
2.6515101368237408 1.4245077934566772 0.0
3.6935723706371628 -1.7350538836258549 0.0
0.7968164332361417 0.1056870780643386 0.0
2.4239819540003165 1.5358996395874112 0.0
2.8540457780767250 2.4199005542490895 0.0
2.2154825328425241 1.9602644196296479 0.0
3.9151706378010149 2.5314608269680674 0.0
3.7765844298066695 1.9373787520207821 0.0
2.4972354216711397 1.1025820112917231 0.0
3.7093009172424618 3.7864585131774930 0.0
4.1887470608509147 2.1249267233854789 0.0
0.9344371640507561 0.5963186830441017 0.0
3.1438886744073304 3.2361382995868460 0.0
2.7168582600630522 1.6695150283356390 0.0
4.2222771616128680 2.2080462024400984 0.0
4.1405145194175148 2.0296328517497728 0.0
3.1012467784118911 2.1896449799570319 0.0
3.7385747016538482 2.5812218771050945 0.0
1.2607117921150435 -0.7697402660006527 0.0
3.2907041611747627 0.6466471433232973 0.0
3.9916519426687236 0.1427291714434840 0.0
1.6698210373625983 4.0683862197359151 0.0
2.2518712877751752 1.8651659054357006 0.0
0.7061698009159550 0.6015515622617055 0.0
4.0040040646465629 2.5971774368734164 0.0
4.2907729404854384 2.1581270193326940 0.0
3.9118817350190884 1.1916212745519414 0.0
3.8201997772931322 2.1979598562776612 0.0
3.8230496310888245 2.9133373090365775 0.0
3.4369344079666111 0.0820921186406717 0.0
3.9096599859866887 3.4745190793765799 0.0
3.7933354370371593 2.4551043907280681 0.0
3.7358053411296819 1.9625230300329812 0.0
3.5953027055840692 1.7492460649396047 0.0
2.8246343040812714 1.7869022059586372 0.0
3.3684011169821200 1.3885445149103761 0.0
3.1991678698667316 1.6618540662927117 0.0
3.1538029598883228 2.3317629186616204 0.0
3.2826144632698200 2.5074555053700331 0.0
3.0240223027347510 -0.4974303618825214 0.0
3.6098208779257672 3.8490074215740409 0.0
2.5206213810156384 2.1206573528690673 0.0
2.8947130381661519 1.4029387408125336 0.0
3.9210592065102032 0.5467518543580199 0.0
2.3394249658699056 0.3716427576245375 0.0
3.6710374467673867 1.2345225317774382 0.0
2.7983771202967329 2.6268931138919260 0.0
3.4915981525549786 4.5880948295385462 0.0
3.6354643475517476 2.6415372111618853 0.0
2.2394829278564994 1.3169357461278925 0.0
4.3363912363230730 2.3522077770507774 0.0
4.0165870888381745 2.5773826431351199 0.0
2.8527513921090208 -0.7930166710095229 0.0
4.1170823842091737 1.8209266890591729 0.0
2.5120982118216255 2.0258214070339706 0.0
2.5589107899292847 1.0771757447365111 0.0
3.9371331599591977 2.7218365117589380 0.0
2.7301032593462469 1.3557926525906523 0.0
3.8237747456509981 -0.4237612956668607 0.0
1.9618587441776458 1.4261666452924877 0.0
2.2465925283012074 0.6187549327643775 0.0
2.0926232871541557 0.0429920864940732 0.0
4.1792027136988548 2.4827685235059933 0.0
2.5977659034603571 1.7119225442497970 0.0
2.8103573247580576 2.4544016921607827 0.0
2.9347125473631297 4.7381541623110230 0.0
2.3448269874421328 1.2517921105873593 0.0
2.5252385405275937 2.8797579651223471 0.0
2.1878221632996717 1.6534683548185138 0.0
3.2864037744458447 3.5015110230365694 0.0
1.8274361127725385 1.7706880993383594 0.0
3.9823699112443487 -0.0858071520589655 0.0
3.4935036303890197 2.2556360228579808 0.0
3.8950373082165828 2.5722019111340231 0.0
4.0070699241588690 2.0087758974536740 0.0
4.0376426779566659 2.1082223541846599 0.0
3.6325003805906784 0.4621649504539069 0.0
3.1029655317972940 1.5956390433624994 0.0
1.6451831348010606 1.6761713014011439 0.0
2.2323954062373086 1.0644249142782189 0.0
2.8656999160039827 -1.0477729746050357 0.0
3.7395182447859070 2.5591251054726900 0.0
3.8678066265228255 1.9836936190025365 0.0
1.4239627826075738 0.0776426346814427 0.0
2.0272793642246283 1.1004244701220329 0.0
3.7373548126126099 3.1638261013552320 0.0
1.1225552492188737 0.4475888782987081 0.0
1.8313754745583266 3.2599925348664898 0.0
1.4644744735066013 0.8470777470691371 0.0
3.9814947992791083 1.5858419911734252 0.0
1.8406188651432789 2.2642126425518598 0.0
1.0884314899918837 0.7220631745277363 0.0
2.1245804993125001 2.3888932505704461 0.0
2.7843607504928247 3.3820664447682693 0.0
3.3446508245712696 1.1064974018434799 0.0
3.8108583188057721 0.6585990837330208 0.0
3.5686317834581032 2.2186492452310023 0.0
3.7621678432341201 -1.1252440723455739 0.0
3.2743669431805653 1.7656591222241675 0.0
4.0349219712313964 1.8055787867978710 0.0
1.6420287148833796 -0.3333485770709887 0.0
1.4194989124891066 1.5130688991004257 0.0
3.4455597727540024 2.5833327779798370 0.0
1.2920847235914030 1.8022971580864366 0.0
3.6114176849538686 2.7419772652026806 0.0
3.9240656528720312 1.0937891119985592 0.0
1.4543165466255779 0.7712359701796390 0.0
1.3675504507237266 1.3026986049493572 0.0
3.9151838804280259 -0.9250792640811081 0.0
1.8250005001492535 1.8427430910375031 0.0
1.5032480771536627 0.8461794367913698 0.0
1.2604296112185684 0.1609937465738791 0.0
3.7050152751664660 2.3490218337506841 0.0
4.0059992205150499 0.1591213529984147 0.0
3.1468251751219785 -0.3053981260128193 0.0
1.5934212617934607 3.1018860818415637 0.0
1.1807345541824754 1.0007054174709611 0.0
4.0963979357690565 2.1484333098635764 0.0
1.3283861304652029 0.8022991001281018 0.0
1.5294041955386823 2.7801397602129381 0.0
3.6901241808760017 2.1056275672841260 0.0
1.3298083524533124 -0.2676223810943371 0.0
3.3339002713439059 0.8086400694455175 0.0
3.1582158373058085 2.4883312465433689 0.0
2.6858734047388433 -1.4076232902764687 0.0
4.0989625296635745 2.6143332660008425 0.0
3.4190982268236962 1.9623880052341260 0.0
3.8149342476308870 0.2240306939510735 0.0
2.0000745892387251 3.0560689417689235 0.0
3.6272019216223654 3.6726311765043675 0.0
2.4429982851932857 4.0338196574527467 0.0
0.8538161888311998 0.8082664661473388 0.0
3.7615782970112961 2.5377630265312678 0.0
1.0545783935342363 0.5576368778607111 0.0
2.8608864841664103 0.2568243408659783 0.0
2.1256660495911106 2.2096872744436515 0.0
3.6023467485970531 2.8366862440093512 0.0
3.1087091103293947 1.0521376416646484 0.0
0.8220731835732914 0.5898018025652086 0.0
4.1650329055494835 2.0630933915714276 0.0
4.1110854900400629 -0.4499153850270567 0.0
3.5721379319059681 1.6481093961673023 0.0
2.2818473005273128 1.5827944264240561 0.0
0.7641786055446050 3.4574472034277579 0.0
0.9836557688947478 0.8439658621262567 0.0
4.2407548705882405 2.0327487487093610 0.0
1.3044491575049328 1.0392182027249859 0.0
1.2344729923332107 0.4811058056652613 0.0
3.1094814695209299 1.8404682477940122 0.0
1.4072121526439429 -0.2951574642587272 0.0
4.2621463959921186 2.4507375245767604 0.0
3.7221398224283817 1.6880715081154312 0.0
3.1830005947722353 2.2210608953457669 0.0
2.8936316294301632 2.9966132459947330 0.0
3.9335982815031034 3.2608600365887814 0.0
0.9620255384972359 0.3027670218497358 0.0
1.7262062336476658 2.4101742021742885 0.0
4.0654575317840429 2.5432503246922225 0.0
3.6905338903021496 -1.4018427520123953 0.0
1.2131529821497773 3.3076046163257189 0.0
1.1717267737117012 0.4802956652030937 0.0
0.9383286989759412 0.3738348717783843 0.0
0.9026268018294006 0.0554378533675719 0.0
4.1140359078635020 2.4621919218060913 0.0
3.8403207301106570 2.8397652284534467 0.0
2.7362772260825108 1.6087203493876108 0.0
1.0308427893220073 1.4840034840676282 0.0
3.9666876466910601 2.6444027277182771 0.0
4.1690138191377546 2.3686783899818962 0.0
4.3032249599278538 2.2182262685155423 0.0
4.0741012933461773 1.9465195744518855 0.0
1.6335524863250073 2.3202488936642620 0.0
3.8018434992810022 -0.1601712263230253 0.0
1.2100175669422861 0.6105977385663007 0.0
3.8655028415774773 1.5526543202144656 0.0
3.9450410319550042 1.4342904908855649 0.0
2.5527195611335194 1.7446979322748439 0.0
3.0592432178947422 1.5122332120943984 0.0
3.0627102228181933 2.0700468700161685 0.0
3.0839697348778836 1.9496744955289329 0.0
3.3715254258134073 1.7798933054294075 0.0
3.9858657511841051 2.2609159706428947 0.0
1.0497748577444979 0.1457375272787493 0.0
2.8836423328868750 2.1271954087164429 0.0
2.4239714851145191 0.8589486518623295 0.0
2.7232361198736919 1.9751783104993623 0.0
2.4244517479228498 -0.0391046173308041 0.0
4.1413800780084218 -0.7570710053249229 0.0
0.9399398448782575 0.9566805284753570 0.0
2.3130047372454614 -1.0760737995878871 0.0