# vtk DataFile Version 3.0
LucasCarvalhoTCC Results
ASCII

DATASET POLYDATA
FIELD FieldData 1
TIME 1 1 double
2.3000000000000003

POINTS 531 float
0.02430399999999999 0.16425 0.0
0.5913384 0.481878 0.0
1.30475 0.591832 0.0
0.774126 0.951272 0.0
0.04779564148251592 0.1966194329439859 0.0
0.0726092153537953 0.2279866320496896 0.0
0.09876577335895967 0.2582426022760065 0.0
0.1262817198684718 0.2872673048853742 0.0
0.1551671626852806 0.3149288071400502 0.0
0.1854238368919928 0.3410826624766006 0.0
0.2170424591499632 0.3655716640299072 0.0
0.2499995164635996 0.3882263409476824 0.0
0.2842534387828506 0.4088665906889567 0.0
0.3197403359862048 0.4273050841371062 0.0
0.3563695945475563 0.4433531534921038 0.0
0.3940201673622058 0.4568300511916809 0.0
0.4325386107291805 0.4675762214989666 0.0
0.4717406913237268 0.4754709112408955 0.0
0.5114182513144845 0.480453442081874 0.0
0.5513531678859215 0.4825464217651069 0.0
0.6182637923774223 0.5096055604109244 0.0
0.647389101376845 0.5350126187545199 0.0
0.6784752958296183 0.5579802184492302 0.0
0.7112421079139344 0.5784810076698811 0.0
0.7454110434104482 0.5965507527581431 0.0
0.7807301979183381 0.6122562812860965 0.0
0.8169827939052532 0.6256694297140926 0.0
0.853985522124928 0.6368498290413532 0.0
0.8915818964261243 0.6458353363890481 0.0
0.9296339776508085 0.6526379336565091 0.0
0.9680139759519513 0.6572432424840469 0.0
1.006596418266983 0.659612648128084 0.0
1.045251165872634 0.6596877658251245 0.0
1.083837680945672 0.657397570658483 0.0
1.122201320191055 0.6526688455666412 0.0
1.160173053543044 0.6454405726452737 0.0
1.197574286953346 0.6356824063786186 0.0
1.23422961949795 0.6234159704281613 0.0
1.26998758503999 0.6087366500005643 0.0
1.285086682927543 0.6256533177085738 0.0
1.263669745906668 0.6583917156018083 0.0
1.240480125919214 0.6898988493917133 0.0
1.215532715641304 0.7200329197235763 0.0
1.188869833862339 0.7486599839005789 0.0
1.160556835593143 0.7756559317113654 0.0
1.130680194163798 0.8009104211039757 0.0
1.099347083827048 0.8243335727704395 0.0
1.066684425336412 0.8458643604021228 0.0
1.03283497048792 0.8654772531176074 0.0
0.9979492572630678 0.8831824104874066 0.0
0.9621749986495024 0.8990166556695112 0.0
0.9256475378616493 0.9130272060048579 0.0
0.8884846540507749 0.9252538945090274 0.0
0.8507866567183312 0.935715378288671 0.0
0.8126405010322847 0.9444016349017643 0.0
0.7365055179612304 0.9396161853607135 0.0
0.699310855231089 0.9266666891603924 0.0
0.6626179171945521 0.9123577070090924 0.0
0.6264901449910028 0.8966765244755546 0.0
0.5909789825447118 0.8796450886595113 0.0
0.556124897941028 0.8613059841617771 0.0
0.5219601957009091 0.8417124664434518 0.0
0.4885110616878257 0.8209207172498462 0.0
0.4558007060429968 0.7989848675704875 0.0
0.4238520247653796 0.775953675763176 0.0
0.3926900138417566 0.7518687036338616 0.0
0.3623437622133722 0.7267636709390595 0.0
0.3328479550295906 0.7006647540504483 0.0
0.3042438201183181 0.6735915983461908 0.0
0.2765795358619001 0.6455588748284606 0.0
0.2499101143933102 0.6165781952942546 0.0
0.2242967982692083 0.5866601984136335 0.0
0.1998060807431611 0.5558166834807132 0.0
0.1765083808984156 0.5240625786010467 0.0
0.154476512720734 0.491417660368959 0.0
0.133784033184808 0.457907916333494 0.0
0.114503564227142 0.4235664945146766 0.0
0.09670517293008124 0.3884342245925089 0.0
0.0804548910754031 0.3525597611689231 0.0
0.06581337946329963 0.3159993090744527 0.0
0.05283482490365372 0.2788161107032479 0.0
0.0415660226296666 0.2410796291505872 0.0
0.03204569406625649 0.2028646095712164 0.0
0.5272009874003867 0.6419624505772817 0.0
0.7421848286576707 0.7716726266421574 0.0
0.8789503364783713 0.7829234141383637 0.0
0.6149390992905563 0.7449438030688011 0.0
0.4064556042659638 0.5942834991165423 0.0
0.9875021850865396 0.7666507358101158 0.0
0.3188065960661005 0.539594034984892 0.0
0.61365100263957 0.6399487878797632 0.0
0.8049090660915541 0.8464379870891131 0.0
0.7099820328572021 0.6828840522539854 0.0
0.5239467234991928 0.7406922291088611 0.0
0.8154056325591208 0.7211774015928547 0.0
0.6676178829014909 0.8152713180209475 0.0
0.4416080359619968 0.674360953773491 0.0
0.489443615375965 0.5654986742123573 0.0
1.076665773779852 0.7387182918829318 0.0
0.250390543112057 0.4877450112830265 0.0
0.5736819937919005 0.5790366884881447 0.0
0.7263706755366466 0.8615301097563091 0.0
0.940143307772686 0.8233944909985552 0.0
0.927065543677544 0.7236459161626674 0.0
0.8744389806957806 0.8609114380468947 0.0
0.336888362650554 0.6081958070931937 0.0
0.2030757334857187 0.4383942902513459 0.0
0.3861483329720647 0.5255533415902591 0.0
0.5621001921466506 0.7923778419149285 0.0
0.6822897332295245 0.7428043323059399 0.0
0.5764061681675353 0.6881266532454204 0.0
1.129195449682892 0.7163224153578123 0.0
0.8157794419559141 0.7831214907157077 0.0
0.3806644703311284 0.6554275822782399 0.0
0.7695737871052837 0.669593045341503 0.0
0.4699375460410929 0.6217118815516158 0.0
0.6830867370872363 0.630350317562806 0.0
1.040416897214502 0.7929392348941093 0.0
0.4604428393605979 0.7321209818568342 0.0
0.8729552856459739 0.7015083313474691 0.0
1.017010765275644 0.7166925631396708 0.0
0.6458785458483771 0.6946878992565794 0.0
0.7733575582969163 0.8941098392103913 0.0
0.4457537579383052 0.5273353624588528 0.0
0.163830623786951 0.3903175742448083 0.0
0.6095823984734953 0.8256600013628639 0.0
0.2618074352614998 0.5435604438425528 0.0
0.6287880420949764 0.5875838132975476 0.0
0.3100402147222924 0.4835410260423071 0.0
0.5422177893302824 0.5343158927797464 0.0
0.9964262112680041 0.8213447667248638 0.0
0.4971609598823845 0.6906859160718212 0.0
0.5740517260168769 0.633982031239429 0.0
0.7423299505107201 0.7218768583704394 0.0
0.767147744476665 0.819658485932403 0.0
0.9427329070375209 0.7774595780066723 0.0
0.8375285793481674 0.8869398470561132 0.0
0.2879426409425497 0.5872676364411625 0.0
0.6797562629663748 0.8647676397847667 0.0
1.171674168522591 0.6949964056806914 0.0
0.5261010885606964 0.6055079299963303 0.0
0.7081534744446967 0.8078672678314597 0.0
0.9681672688626206 0.705385299758921 0.0
0.7364069054947873 0.6432919177737106 0.0
0.363826821075015 0.5678764295233764 0.0
0.826170216989844 0.6605791783255148 0.0
0.1284439337099834 0.3602715082199688 0.0
0.518140828090112 0.783905985497134 0.0
0.8452908336054504 0.8167586152211004 0.0
0.2015204468558833 0.492088055688788 0.0
0.4005883523205732 0.7121294304856254 0.0
0.3551392316798573 0.4864133323669936 0.0
0.2501727034998737 0.4443035857235296 0.0
0.857938396055507 0.7390317828783199 0.0
0.9245301815433076 0.8668102132501951 0.0
0.5702050292970205 0.7323438487067678 0.0
1.111607633075016 0.759318252473435 0.0
0.6317193755596126 0.7853891653733797 0.0
0.7921381265818805 0.7497379312370454 0.0
1.088942426366261 0.7015435214091311 0.0
0.5818207607488639 0.5352340257544296 0.0
0.4203532416309484 0.6369649631143086 0.0
0.4854818714173937 0.5131439318707094 0.0
0.4475429831528036 0.5690430472086269 0.0
0.8968753306595262 0.8225547516037004 0.0
0.6339557898063448 0.8543470494763272 0.0
0.3416564411796998 0.6516449771136894 0.0
1.082970576264455 0.7856036465430698 0.0
0.2255204648032354 0.5229464838393291 0.0
0.7335043541589261 0.9012744999286941 0.0
0.9097052989734319 0.6921177492721042 0.0
0.5363428275528405 0.6992389299864537 0.0
0.9657777897300287 0.8588269742066746 0.0
1.025947476617909 0.7556651119714124 0.0
0.1090829970454354 0.3226173037985549 0.0
0.4836644525169279 0.7663103281018557 0.0
0.6910856326166581 0.777867529208468 0.0
0.6694391877434097 0.5946719355048008 0.0
0.2954883530575775 0.4501042133334518 0.0
0.6746032498128595 0.6643957640016517 0.0
1.054636636429828 0.6974583960183274 0.0
0.8939255235163368 0.7470597914537064 0.0
0.3749741568555516 0.6190655430398917 0.0
1.204101441114554 0.6801433534918062 0.0
0.6130053345415899 0.6785345531932346 0.0
0.7679719108452487 0.8562682874000032 0.0
0.9710820219997449 0.8008372590855476 0.0
0.1608022352294362 0.4242591696906621 0.0
0.2865399820604418 0.5141369963640697 0.0
0.1962258775846918 0.4008383427744516 0.0
0.6210920174972845 0.5516143721732873 0.0
0.4843009180093644 0.6583977883024127 0.0
0.5695029195102991 0.8267073580550881 0.0
0.9562891163300477 0.7436031251145003 0.0
0.4174190173896447 0.5044019081507806 0.0
0.410860431802698 0.5535781448116232 0.0
0.8709320861791604 0.9002602580953145 0.0
0.427354757192076 0.7399041791280969 0.0
0.7107884943357746 0.7172753954970394 0.0
1.030382288537246 0.8267335242583146 0.0
0.7737440530215844 0.7115751739064536 0.0
0.8042035044852396 0.9123190309183211 0.0
0.0480920891272324 0.2181807374272496 0.0
0.3695079235280397 0.6886893012630373 0.0
0.773516204411121 0.7830673827025234 0.0
0.302776671534508 0.6210168062901616 0.0
0.7150573728414059 0.6149413270404035 0.0
0.5863276441271683 0.769748656022605 0.0
1.143752049005473 0.6780480059671409 0.0
0.6477132714923303 0.7318578097016951 0.0
0.8380052680878572 0.8531154611905379 0.0
0.5966224054445893 0.6051703156405629 0.0
0.3207240819522855 0.5772784374275386 0.0
0.3520131451607586 0.5263918604440553 0.0
0.8573528491808811 0.6709738722470224 0.0
0.1797236573643203 0.460867988842514 0.0
0.5540828191547277 0.6661566975721369 0.0
1.158039843450239 0.7357536542887966 0.0
0.08638006908591334 0.286237566592474 0.0
0.790861820497242 0.6466611559014377 0.0
0.5362079962218838 0.8121454698907893 0.0
0.9405172130232713 0.6862060282668497 0.0
0.6039359324506977 0.711463595189489 0.0
0.4440093493753478 0.6096873538428137 0.0
0.5500746279087338 0.7620941994763282 0.0
0.2578504496023611 0.5739900063885278 0.0
0.502526452350101 0.6209820553182169 0.0
0.6799833858912959 0.7033681517905728 0.0
0.7183487148906835 0.7518430858176317 0.0
0.8006701240044786 0.8118713608014352 0.0
0.1304684854221093 0.3934039266496895 0.0
1.00789495394612 0.7937868725857601 0.0
0.696960396255943 0.893370944718147 0.0
0.8258315165019564 0.7538365084989149 0.0
0.8462950259502577 0.775614153529746 0.0
0.4082018839227037 0.6749460331934272 0.0
0.7025889307788081 0.8378536687159448 0.0
0.4666676520109517 0.6984557076050861 0.0
[...]
POINT_DATA 531

VECTORS Velocity float
0.0000000000000000 1.0000000000000000 0.0
0.0000000000000000 1.0000000000000000 0.0
2.6381840781916193 -0.9592932879062178 0.0
1.8237548431873711 1.0294138677547711 0.0
0.0000000000000000 1.0000000000000000 0.0
0.0000000000000000 1.0000000000000000 0.0
0.0000000000000000 1.0000000000000000 0.0
0.0000000000000000 1.0000000000000000 0.0
0.0000000000000000 1.0000000000000000 0.0
0.0000000000000000 1.0000000000000000 0.0
0.0000000000000000 1.0000000000000000 0.0
0.0000000000000000 1.0000000000000000 0.0
0.0000000000000000 1.0000000000000000 0.0
0.0000000000000000 1.0000000000000000 0.0
0.0000000000000000 1.0000000000000000 0.0
0.0000000000000000 1.0000000000000000 0.0
0.0000000000000000 1.0000000000000000 0.0
0.0000000000000000 1.0000000000000000 0.0
0.0000000000000000 1.0000000000000000 0.0
0.0000000000000000 1.0000000000000000 0.0
0.0000000000000000 0.0000000000000000 0.0
0.0000000000000000 0.0000000000000000 0.0
0.0000000000000000 0.0000000000000000 0.0
0.0000000000000000 0.0000000000000000 0.0
0.0000000000000000 0.0000000000000000 0.0
0.0000000000000000 0.0000000000000000 0.0
0.0000000000000000 0.0000000000000000 0.0
0.0000000000000000 0.0000000000000000 0.0
0.0000000000000000 0.0000000000000000 0.0
0.0000000000000000 0.0000000000000000 0.0
0.0000000000000000 0.0000000000000000 0.0
0.0000000000000000 0.0000000000000000 0.0
0.0000000000000000 0.0000000000000000 0.0
0.0000000000000000 0.0000000000000000 0.0
0.0000000000000000 0.0000000000000000 0.0
0.0000000000000000 0.0000000000000000 0.0
0.0000000000000000 0.0000000000000000 0.0
0.0000000000000000 0.0000000000000000 0.0
0.0000000000000000 0.0000000000000000 0.0
2.6783468533864432 -1.7944803010183208 0.0
3.6713638762972138 -2.3046806591563578 0.0
3.7591908766404893 -2.2279040401322607 0.0
3.7539250119652134 -1.9619065151834361 0.0
3.8028833192646294 -1.7143978612447828 0.0
3.8482350479138776 -1.3752066172110835 0.0
3.8607386054360626 -1.1712140970382867 0.0
3.9015760140399158 -0.9188961479997811 0.0
3.7938978929787313 -0.5878534745866397 0.0
3.7466370372777043 -0.3275720750915241 0.0
3.6252051249208210 -0.0622799237343515 0.0
3.4479212821361429 0.1934521780224148 0.0
3.3178407157193539 0.3978334976904506 0.0
3.0577767900098296 0.5987922902481905 0.0
2.5567148038152840 1.0710182652332965 0.0
1.8325943942716538 0.9448409821181861 0.0
0.0000000000000000 0.0000000000000000 0.0
0.0000000000000000 0.0000000000000000 0.0
0.0000000000000000 0.0000000000000000 0.0
0.0000000000000000 0.0000000000000000 0.0
0.0000000000000000 0.0000000000000000 0.0
0.0000000000000000 0.0000000000000000 0.0
0.0000000000000000 0.0000000000000000 0.0
0.0000000000000000 0.0000000000000000 0.0
0.0000000000000000 0.0000000000000000 0.0
0.0000000000000000 0.0000000000000000 0.0
0.0000000000000000 0.0000000000000000 0.0
0.0000000000000000 0.0000000000000000 0.0
0.0000000000000000 0.0000000000000000 0.0
0.0000000000000000 0.0000000000000000 0.0
0.0000000000000000 0.0000000000000000 0.0
0.0000000000000000 0.0000000000000000 0.0
0.0000000000000000 0.0000000000000000 0.0
0.0000000000000000 0.0000000000000000 0.0
0.0000000000000000 0.0000000000000000 0.0
0.0000000000000000 0.0000000000000000 0.0
0.0000000000000000 0.0000000000000000 0.0
0.0000000000000000 0.0000000000000000 0.0
0.0000000000000000 0.0000000000000000 0.0
0.0000000000000000 0.0000000000000000 0.0
0.0000000000000000 0.0000000000000000 0.0
0.0000000000000000 0.0000000000000000 0.0
0.0000000000000000 0.0000000000000000 0.0
0.0000000000000000 0.0000000000000000 0.0
3.7753234765793877 2.5238285963805143 0.0
4.1042869033801139 1.9286310722091773 0.0
3.8753295071718910 1.0722631678169312 0.0
3.7865317764097295 2.1776429575411944 0.0
3.7598255886997514 2.9067083206359192 0.0
3.5978836991565735 0.1497030686373394 0.0
3.8991356275405851 3.4939039395699303 0.0
3.6342529326780220 2.4127610725809010 0.0
3.6228600694774986 1.7349177561070765 0.0
3.5632479927839955 1.7000013733108172 0.0
2.9503704662771413 1.9121870791599724 0.0
3.5020070726486909 1.3189114211748210 0.0
3.3293997936160276 1.6985368094163742 0.0
3.1729611708019378 2.4127851524773938 0.0
3.2615120922287000 2.4264090006725541 0.0
3.1568969936211997 -0.4188551715007446 0.0
3.6035332316839099 3.8605229076678351 0.0
2.5696293476468020 2.1406540733856212 0.0
3.0541197730180305 1.4206430325389992 0.0
3.7524259095251025 0.5312440473760686 0.0
2.6545968847730550 0.4037539847648636 0.0
3.4842606622475518 1.1072758058788763 0.0
2.8166666955151762 2.6773442737555890 0.0
3.4911180677085696 4.5889458306362787 0.0
3.6004237442751204 2.6287035936726992 0.0
2.4415244081379615 1.4371352559383856 0.0
4.1537046140526037 2.1786436850817119 0.0
3.8327719725871194 2.5063425487043642 0.0
2.9300749460421947 -0.7659203720246013 0.0
3.9701019395861930 1.5986640266194001 0.0
2.5513676848942857 2.1100900554822091 0.0
2.6776202933867999 1.0723444636686752 0.0
3.7662281780995159 2.6544630937290155 0.0
2.7624979109388903 1.3977435582632645 0.0
3.7746983412011854 -0.2669698252183443 0.0
2.1114099640026960 1.5409383303575321 0.0
2.5201233396818052 0.6640499706407588 0.0
2.3453478505592953 0.0845607510673567 0.0
3.9750687432359775 2.3604214859948995 0.0
2.7086876562008571 1.7059283718859732 0.0
2.8023452383197385 2.4202623494163440 0.0
2.9349908109196408 4.7380535090494060 0.0
2.5355770125552506 1.3519829040958726 0.0
2.5308275941389042 2.8998493411478914 0.0
2.2538286179008149 1.7225898138921725 0.0
3.2646843890629418 3.4987620997004090 0.0
1.9193446215717676 1.7819619187245488 0.0
3.7874646450561564 0.0374892890700444 0.0
3.4892500570061640 2.3169964503618918 0.0
3.6798766387778201 2.4957780541380421 0.0
3.9284625960658413 1.8324641240441781 0.0
3.9074449491106349 1.8911339319266827 0.0
3.7104508878970601 0.4754494912041898 0.0
3.0226892462903776 1.4671727812378905 0.0
1.6608702121520833 1.6970140455344738 0.0
2.4314590324745344 1.1507696867569259 0.0
2.8995547806864295 -1.0139435506723027 0.0
3.5865864665205129 2.4809447219660683 0.0
3.8461356164635059 1.9208683367277972 0.0
1.6630594015568232 0.1070948668471243 0.0
2.0846255256885842 1.0845194786029846 0.0
3.7166434691288170 3.1779192597169783 0.0
1.2504292418806209 0.4774912959597689 0.0
1.8314195869457848 3.2599318797681849 0.0
1.5996134449548047 0.9396059277270331 0.0
3.8027030225983105 1.3869630916944946 0.0
1.8404758443090850 2.2676120525962697 0.0
1.1568180990650943 0.7885444566601114 0.0
2.0997481817122008 2.3855346893984994 0.0
2.7788234956579951 3.3841390000621123 0.0
3.5154631777787864 1.0739282228868405 0.0
3.5366977705457492 0.6463362187477223 0.0
3.5664864379996217 2.2636052590060949 0.0
3.7411125804643501 -1.0151172341813697 0.0
3.3944843764864117 1.8131625398576561 0.0
3.9665375540490282 1.6142697399148427 0.0
1.7555993989585368 -0.3171695454245434 0.0
1.4978827786247511 1.5449304886893540 0.0
3.4099322863494246 2.6348467106644553 0.0
1.3219233067807639 1.7881329705456557 0.0
3.5551919998764276 2.6716986403988980 0.0
3.7438557560550447 0.9677165137707676 0.0
1.5971391340547219 0.8455823373046150 0.0
1.3946401103358814 1.3487920384623038 0.0
3.8442812036206662 -0.7327069323954560 0.0
1.8259941292909037 1.8513024424418441 0.0
1.6144326433015552 0.8750432395658865 0.0
1.4759247863239227 0.1735170816392818 0.0
3.6513144685594390 2.3742027196274300 0.0
3.6708845621940656 0.2498874868848676 0.0
3.3229539568574302 -0.1970936382671118 0.0
1.5934211569618546 3.1018932102546031 0.0
1.2960027097994913 1.0957025663388711 0.0
4.0144544776655344 2.0362241372031060 0.0
1.3699440102739782 0.8387302388619324 0.0
1.5199222934501115 2.7790195728980516 0.0
3.6040042439394289 2.0538746170585038 0.0
1.4690814672171415 -0.2522665745128542 0.0
3.5269061984738892 0.7993947534014685 0.0
3.1629695245830298 2.5526382720640290 0.0
2.6920195030375482 -1.3950313433494794 0.0
3.8757334084225623 2.4868536277922435 0.0
3.4474746097481765 1.8593775271512401 0.0
3.7709426856668959 0.2674845812858879 0.0
2.0000947044164037 3.0556568916486224 0.0
3.6157243986164453 3.6865212067359523 0.0
2.4434655417798186 4.0337448737206092 0.0
0.8976761484192688 0.8553728096773519 0.0
3.6437533511291624 2.5325762415761921 0.0
1.1773543848582477 0.6218258586262736 0.0
3.1404843841186882 0.2967860701510052 0.0
2.1058219989808218 2.1893262881250788 0.0
3.5614768319619730 2.8036742059225110 0.0
2.9826955511965445 1.0024890731539999 0.0
0.9002024743123931 0.6583834391063368 0.0
4.0356328758262379 1.9223754781027256 0.0
3.8439552586751744 -0.2573475544565310 0.0
3.6138006822880375 1.5392345326754313 0.0
2.3217646887768213 1.5415883420975496 0.0
0.7641785762692607 3.4574472398247691 0.0
1.0294993461543962 0.9004153717742227 0.0
4.0488590188637490 1.7850192914174845 0.0
1.3196664608932258 1.0621088972004618 0.0
1.2657958833724279 0.4909704494068445 0.0
3.2487900825212614 1.9236784290675351 0.0
1.4609040330828791 -0.2893808814326552 0.0
4.0744697717205414 2.3156285243910211 0.0
3.5756282462498006 1.5050834630986520 0.0
3.1397792665013009 2.2370336223362299 0.0
2.9104745487019672 3.0311991187589635 0.0
3.8969108892696749 3.2581482137798901 0.0
1.1035566103399319 0.3322049997658941 0.0
1.7256373633964845 2.4103694264409512 0.0
3.8359095502541933 2.4847966262454837 0.0
3.6768597248648662 -1.3171548480547208 0.0
1.2131486550435429 3.3076059674619396 0.0
1.2676768923008495 0.5083266956061484 0.0
1.0536279566135422 0.4202410680255477 0.0
1.0697149546807516 0.0604637182718980 0.0
3.9351072420980979 2.3807857841927409 0.0
3.7331507519495428 2.7972897382590021 0.0
2.8907625694393486 1.7286695673028880 0.0
1.0388622970990404 1.5002519104757785 0.0
3.7692294831715110 2.5639977647455887 0.0
4.0003131160458167 2.2280733155147594 0.0
4.1296613121473973 2.0144380781523883 0.0
3.8935054407012122 1.6920153923669345 0.0
1.6336865819044408 2.3200301067876068 0.0
3.7775760132863851 -0.0262442439361457 0.0
1.3280297982232538 0.6506598724362909 0.0
3.8593911186352345 1.4228033963274038 0.0
3.8848566941684171 1.2939220146763795 0.0
2.6071210115489163 1.8526474863215117 0.0
3.1892701825344947 1.5164733130483687 0.0
3.1072925028414069 2.1607431216077315 0.0
3.0781839681628567 1.9696601665664126 0.0
3.4057284496627847 1.6809398032045699 0.0
3.9451264126768466 2.1698468981899377 0.0
1.2211446614967028 0.1777397585128427 0.0
2.9073553041706490 2.1009587510184686 0.0
2.6726766131502373 0.8955996255862924 0.0
2.8377538125551567 2.0634314622453562 0.0
2.7148705862155005 0.0096030791371989 0.0
3.9223981644441381 -0.5257039411563054 0.0
0.9442054091113148 0.9663914283984933 0.0
2.3144087977077090 -1.0749764525193954 0.0
3.8350977004540590 2.4999183949479207 0.0
2.8857897278434042 1.4617167621319740 0.0
3.1037037697026890 1.7175315117916203 0.0
3.4873467237528493 3.9821363287013902 0.0
0.5740739295225851 1.6444602633248939 0.0
3.6587772670318790 2.6439908249866590 0.0
1.5293663969572788 1.8360391428346636 0.0
3.0055003885822571 -0.6275493407667716 0.0
3.7860252850480989 0.7921038211266942 0.0
3.5075293340601266 2.4137993564479143 0.0
0.6962526959247380 0.5561348642418448 0.0
1.1904760950235609 2.2371801063454102 0.0
3.1136527704581587 2.7770340109981659 0.0
1.7173755511144757 2.9232478665499175 0.0
1.0214283746067754 1.8811929134797558 0.0
0.8747177406741938 1.5832015820492060 0.0
1.6639748074402250 3.0814157056316178 0.0
1.5082010232196323 1.1918127466402091 0.0
2.1900224670049204 -1.4152626633747922 0.0
2.2149673614816656 1.6865354646144799 0.0
0.7436548797736695 0.3217371348093026 0.0
0.8100216785904817 0.6166758275178862 0.0
3.8913594852199234 3.4622338180987158 0.0
1.3290921763097063 -0.0692341276046513 0.0
3.1779212152114211 0.8057789613323489 0.0
3.7392194168516117 -0.0071242130983670 0.0
3.7626083470784435 2.3450729109828048 0.0
1.1250735061189283 3.3292140726039596 0.0
2.8305494184058855 0.7161783373908641 0.0
0.6591900138902452 0.4016908294621552 0.0
3.5527351695233871 -0.3270668971384700 0.0
3.6012665500500525 2.6513926215180503 0.0
0.8717869678318686 -0.0073116428568227 0.0
2.7948901372216159 -0.1918337967127747 0.0
2.8365930863817432 1.5350639591795729 0.0
3.6920309560624891 -1.6863452371480390 0.0
0.9356708790510347 0.1169709699013113 0.0
2.6227201694238444 1.6236987776532854 0.0
2.8862992262248954 2.3558541467008087 0.0
2.3041476928108655 1.9264143609345399 0.0
3.7511777654239422 2.4897127556408623 0.0
3.7699346394909639 1.8487791583519253 0.0
2.6911988550863231 1.1130071074756864 0.0
3.6926458346253104 3.7891870615531693 0.0
4.0283936390403854 1.9326513156129832 0.0
1.0093762650401028 0.6271285716700777 0.0
3.1436558507916899 3.2551845990978530 0.0
2.8354793734953923 1.6638637478762661 0.0
4.0646085177512479 2.0296096645490893 0.0
4.0284000960129234 1.8252439256821071 0.0
3.0911417709968205 2.2375340861049002 0.0
3.6343066495966152 2.4929646031025339 0.0
1.2771306054653053 -0.7654152921321037 0.0
3.5057179831515803 0.6557482841934335 0.0
3.7549525605228693 0.2287866410016313 0.0
1.6699555268392179 4.0683804559070618 0.0
2.3421887368101477 1.9430012948761419 0.0
0.7522163455136740 0.6083922047896925 0.0
3.7964559412373724 2.5119866548080911 0.0
4.0955495305293708 1.9375909253240764 0.0
3.8730743702157180 1.1008486918874514 0.0
3.7427368990673155 2.1510693023869289 0.0
3.7717562890303737 2.8812668522166902 0.0
3.5991751371122849 0.1711939890357378 0.0
3.9063134891488773 3.4795795453167351 0.0
3.6868018425403588 2.4452274509725380 0.0
3.5649467152009637 1.7508919196021731 0.0
3.6252415254595256 1.7359957587374548 0.0
2.8942028631303618 1.8679788229206746 0.0
3.5574615234429579 1.3470569277690547 0.0
3.2627651969806202 1.6696426989577002 0.0
3.1374964678678876 2.3669575234233959 0.0
3.3169991600000164 2.4239973092768548 0.0
3.1585027662041201 -0.4138542182979696 0.0
3.6054142531712139 3.8568870017024364 0.0
2.6290840469087002 2.1641787679975368 0.0
2.9892407541997166 1.4054711708381844 0.0
3.7262059511949812 0.5541320411266683 0.0
2.6891836764503991 0.4206862230021589 0.0
3.4392765069838003 1.1252249002347139 0.0
2.8062690069156364 2.6511395856242674 0.0
3.4913877501879926 4.5885749898117707 0.0
3.6269949313982619 2.6239787882010552 0.0
2.3795955633365535 1.4010007843025578 0.0
4.1546228391907913 2.1829103996931365 0.0
3.8252249426229836 2.4925654760204061 0.0
2.9300868276218588 -0.7658556429261592 0.0
3.9637301799797293 1.6258164116865876 0.0
2.5257170804923383 2.0737287434247840 0.0
2.7416767249151004 1.0994606986988846 0.0
3.7822063352007427 2.6299945001386522 0.0
2.8307836903723351 1.4339933695424985 0.0
3.7689769565601994 -0.2556626538686334 0.0
2.0626150632043547 1.5032261924359778 0.0
2.5725170202308707 0.6808289085382947 0.0
2.3564509519630632 0.0936711868674677 0.0
4.0027300241197166 2.3779022091769630 0.0
2.6557150086693175 1.7028872684733625 0.0
2.8464677398713962 2.4215735512287586 0.0
2.9349389836078723 4.7380566928430188 0.0
2.4734990843340166 1.3196169678353440 0.0
2.5299322744094805 2.8926546282251966 0.0
2.3127379235908800 1.7641103086711001 0.0
3.2728019528681722 3.4984282428724267 0.0
1.9732800812705678 1.7909253303797035 0.0
3.7700758618932246 0.0537212256291993 0.0
3.4473177391616026 2.2753490781812009 0.0
3.7223017185673979 2.5057649870966121 0.0
3.9734717747752129 1.8557853174939629 0.0
3.8567130185766825 1.8969054270318730 0.0
3.7055207782307606 0.4997256520924283 0.0
2.9831722934912013 1.4751608860949217 0.0
1.6549960507113777 1.6865053097129108 0.0
2.3704051786618026 1.1261179313018741 0.0
2.8994373375755083 -1.0141034992027425 0.0
3.6307901186651521 2.4842981706352720 0.0
3.7893816197276271 1.9020150350095537 0.0
1.6865329662468158 0.1186667260659691 0.0
2.1414742006343319 1.1121991403309459 0.0
3.7256672028893578 3.1578418806696087 0.0
1.2913954634098079 0.4926722989156999 0.0
1.8313985911298993 3.2599567501940898 0.0
1.5548597196320579 0.9109279503167313 0.0
3.7673662268695747 1.4129478832829614 0.0
1.8403951319775294 2.2664077474886852 0.0
1.1297216468664733 0.7656586901258952 0.0
2.1153675993898164 2.3846240299752091 0.0
2.7807266854754538 3.3835260524346245 0.0
3.5535607193520549 1.1014422231793468 0.0
3.5077219943776550 0.6610235308171878 0.0
3.5221244830860132 2.2270652334978216 0.0
3.7414130051575261 -1.0144191184730162 0.0
3.3301863227430291 1.7811591831705162 0.0
3.9953299152033854 1.6388959654918651 0.0
1.7559094290565662 -0.3161544128039021 0.0
1.5410724341810169 1.5639341497083021 0.0
3.3960729717893559 2.5969568819497777 0.0
1.3585452268893603 1.7919052794130188 0.0
3.5935734820876797 2.6583900114736267 0.0
3.7113016049538987 0.9954909825311343 0.0
1.5496366402303203 0.8218200648110237 0.0
1.3786673488933596 1.3266839318676167 0.0
3.8435182096748886 -0.7283972624520380 0.0
1.8255399171045130 1.8483025055787698 0.0
1.5764461362546063 0.8678640486415291 0.0
1.5094916039080197 0.1836444745895538 0.0
3.6149759509698058 2.3410427846734252 0.0
3.6517736077076561 0.2614745269341344 0.0
3.3261971372943786 -0.1810948926442675 0.0
1.5934143955796884 3.1018938186226150 0.0
1.2564459625335502 1.0624106157330599 0.0
3.9739589884976771 2.0234716707471834 0.0
1.4168565595360849 0.8665999548725118 0.0
1.5234402755203038 2.7797448077817832 0.0
3.6656712920567633 2.0886634046371646 0.0
1.4726656956775988 -0.2487372156421771 0.0
3.5480866453911419 0.8257191879994370 0.0
3.1531196773393151 2.5164298464634438 0.0
2.6919971854172577 -1.3951537705667749 0.0
3.9007170772887463 2.4987268964121823 0.0
3.3826244947645736 1.8568157109832282 0.0
3.7567675632005049 0.2874805218285734 0.0
2.0001515873800089 3.0557117432222278 0.0
3.6203903918914282 3.6798696445016268 0.0
2.4434182949252530 4.0337047430434074 0.0
0.9297881389889768 0.8821083693942998 0.0
3.6295233817929287 2.4976825666573088 0.0
1.1376877069477374 0.6012933491016201 0.0
3.1595524478997579 0.3166604950753784 0.0
2.1349555067169548 2.1911407740068700 0.0
3.5944838678863444 2.7919110883741749 0.0
2.9544114785229620 1.0129797280416248 0.0
0.8730859783740217 0.6368766163083682 0.0
4.0752083451129595 1.9464645526298663 0.0
3.8345580650683702 -0.2491721893611401 0.0
3.6711752591542286 1.5676846103345135 0.0
2.2918603533674555 1.5428370003085545 0.0
0.7641785762692608 3.4574472398247700 0.0
1.0084794780724406 0.8781410163759855 0.0
4.0357380803744745 1.8014004256764549 0.0
1.3112292891373794 1.0494425434963719 0.0
1.3120133973006320 0.5113390465770901 0.0
3.1845865973677525 1.8860715800417840 0.0
1.4605740219903331 -0.2893797496412186 0.0
4.0703026420256823 2.3163117820037629 0.0
3.5197917537273344 1.5220453123211368 0.0
3.2018943461095626 2.2697523024821931 0.0
2.9040494546866564 3.0104143639961656 0.0
3.9166549150009815 3.2512703757064960 0.0
1.1401127568288560 0.3434346582044893 0.0
1.7257676159959836 2.4101592602917781 0.0
3.8413869055725183 2.4739911648330546 0.0
3.6771802238473281 -1.3173744254717981 0.0
1.2131498218954415 3.3076059610513808 0.0
1.3102649806346516 0.5261198141544448 0.0
1.0146403347841120 0.4030474525131497 0.0
1.0968841758254126 0.0662307409380546 0.0
3.9257743539245915 2.3676843836540375 0.0
3.7497547447684867 2.7679831692335775 0.0
2.8296165207785307 1.6883164131732507 0.0
1.0356138980834506 1.4927627164513069 0.0
3.7918414049160156 2.5460271289755534 0.0
4.0357260482414938 2.2506175048113901 0.0
4.1369643466161738 2.0229793377370533 0.0
3.8537599483516973 1.7106585928449374 0.0
1.6336776976432235 2.3201136333260912 0.0
3.7689161173996113 -0.0072980888983303 0.0
1.2907760938166635 0.6363861116620682 0.0
3.8846157915112021 1.4506337658629429 0.0
3.8862050045779153 1.3265808053595225 0.0
2.5738550622108765 1.8149541322801166 0.0
3.1222746462600650 1.4973818833299022 0.0
3.0629862393375373 2.1172841083350296 0.0
3.1466915000068814 2.0109216889710506 0.0
3.4715090314571486 1.7107509781412091 0.0
3.8996042082582454 2.1529693681805901 0.0
1.2364589233988821 0.1834533269648125 0.0
2.9692872109852622 2.1081734412882986 0.0
2.7319582016060933 0.9207626115091195 0.0
2.7850114031653592 2.0224157408811672 0.0
2.7313408057570081 0.0255920942564818 0.0
3.9184443341322002 -0.5210568837609555 0.0
0.9424761128853710 0.9626216214039134 0.0
2.3143853401744967 -1.0749861056836494 0.0
3.8649594798674656 2.5095943328375530 0.0