# vtk DataFile Version 3.0
LucasCarvalhoTCC Results
ASCII

DATASET POLYDATA
FIELD FieldData 1
TIME 1 1 double
3.7

POINTS 531 float
0.02430399999999999 0.16425 0.0
0.5913384 0.481878 0.0
1.30475 0.591832 0.0
0.774126 0.951272 0.0
0.04779564148251592 0.1966194329439859 0.0
0.0726092153537953 0.2279866320496896 0.0
0.09876577335895967 0.2582426022760065 0.0
0.1262817198684718 0.2872673048853742 0.0
0.1551671626852806 0.3149288071400502 0.0
0.1854238368919928 0.3410826624766006 0.0
0.2170424591499632 0.3655716640299072 0.0
0.2499995164635996 0.3882263409476824 0.0
0.2842534387828506 0.4088665906889567 0.0
0.3197403359862048 0.4273050841371062 0.0
0.3563695945475563 0.4433531534921038 0.0
0.3940201673622058 0.4568300511916809 0.0
0.4325386107291805 0.4675762214989666 0.0
0.4717406913237268 0.4754709112408955 0.0
0.5114182513144845 0.480453442081874 0.0
0.5513531678859215 0.4825464217651069 0.0
0.6182637923774223 0.5096055604109244 0.0
0.647389101376845 0.5350126187545199 0.0
0.6784752958296183 0.5579802184492302 0.0
0.7112421079139344 0.5784810076698811 0.0
0.7454110434104482 0.5965507527581431 0.0
0.7807301979183381 0.6122562812860965 0.0
0.8169827939052532 0.6256694297140926 0.0
0.853985522124928 0.6368498290413532 0.0
0.8915818964261243 0.6458353363890481 0.0
0.9296339776508085 0.6526379336565091 0.0
0.9680139759519513 0.6572432424840469 0.0
1.006596418266983 0.659612648128084 0.0
1.045251165872634 0.6596877658251245 0.0
1.083837680945672 0.657397570658483 0.0
1.122201320191055 0.6526688455666412 0.0
1.160173053543044 0.6454405726452737 0.0
1.197574286953346 0.6356824063786186 0.0
1.23422961949795 0.6234159704281613 0.0
1.26998758503999 0.6087366500005643 0.0
1.285086682927543 0.6256533177085738 0.0
1.263669745906668 0.6583917156018083 0.0
1.240480125919214 0.6898988493917133 0.0
1.215532715641304 0.7200329197235763 0.0
1.188869833862339 0.7486599839005789 0.0
1.160556835593143 0.7756559317113654 0.0
1.130680194163798 0.8009104211039757 0.0
1.099347083827048 0.8243335727704395 0.0
1.066684425336412 0.8458643604021228 0.0
1.03283497048792 0.8654772531176074 0.0
0.9979492572630678 0.8831824104874066 0.0
0.9621749986495024 0.8990166556695112 0.0
0.9256475378616493 0.9130272060048579 0.0
0.8884846540507749 0.9252538945090274 0.0
0.8507866567183312 0.935715378288671 0.0
0.8126405010322847 0.9444016349017643 0.0
0.7365055179612304 0.9396161853607135 0.0
0.699310855231089 0.9266666891603924 0.0
0.6626179171945521 0.9123577070090924 0.0
0.6264901449910028 0.8966765244755546 0.0
0.5909789825447118 0.8796450886595113 0.0
0.556124897941028 0.8613059841617771 0.0
0.5219601957009091 0.8417124664434518 0.0
0.4885110616878257 0.8209207172498462 0.0
0.4558007060429968 0.7989848675704875 0.0
0.4238520247653796 0.775953675763176 0.0
0.3926900138417566 0.7518687036338616 0.0
0.3623437622133722 0.7267636709390595 0.0
0.3328479550295906 0.7006647540504483 0.0
0.3042438201183181 0.6735915983461908 0.0
0.2765795358619001 0.6455588748284606 0.0
0.2499101143933102 0.6165781952942546 0.0
0.2242967982692083 0.5866601984136335 0.0
0.1998060807431611 0.5558166834807132 0.0
0.1765083808984156 0.5240625786010467 0.0
0.154476512720734 0.491417660368959 0.0
0.133784033184808 0.457907916333494 0.0
0.114503564227142 0.4235664945146766 0.0
0.09670517293008124 0.3884342245925089 0.0
0.0804548910754031 0.3525597611689231 0.0
0.06581337946329963 0.3159993090744527 0.0
0.05283482490365372 0.2788161107032479 0.0
0.0415660226296666 0.2410796291505872 0.0
0.03204569406625649 0.2028646095712164 0.0
0.5272009874003867 0.6419624505772817 0.0
0.7421848286576707 0.7716726266421574 0.0
0.8789503364783713 0.7829234141383637 0.0
0.6149390992905563 0.7449438030688011 0.0
0.4064556042659638 0.5942834991165423 0.0
0.9875021850865396 0.7666507358101158 0.0
0.3188065960661005 0.539594034984892 0.0
0.61365100263957 0.6399487878797632 0.0
0.8049090660915541 0.8464379870891131 0.0
0.7099820328572021 0.6828840522539854 0.0
0.5239467234991928 0.7406922291088611 0.0
0.8154056325591208 0.7211774015928547 0.0
0.6676178829014909 0.8152713180209475 0.0
0.4416080359619968 0.674360953773491 0.0
0.489443615375965 0.5654986742123573 0.0
1.076665773779852 0.7387182918829318 0.0
0.250390543112057 0.4877450112830265 0.0
0.5736819937919005 0.5790366884881447 0.0
0.7263706755366466 0.8615301097563091 0.0
0.940143307772686 0.8233944909985552 0.0
0.927065543677544 0.7236459161626674 0.0
0.8744389806957806 0.8609114380468947 0.0
0.336888362650554 0.6081958070931937 0.0
0.2030757334857187 0.4383942902513459 0.0
0.3861483329720647 0.5255533415902591 0.0
0.5621001921466506 0.7923778419149285 0.0
0.6822897332295245 0.7428043323059399 0.0
0.5764061681675353 0.6881266532454204 0.0
1.129195449682892 0.7163224153578123 0.0
0.8157794419559141 0.7831214907157077 0.0
0.3806644703311284 0.6554275822782399 0.0
0.7695737871052837 0.669593045341503 0.0
0.4699375460410929 0.6217118815516158 0.0
0.6830867370872363 0.630350317562806 0.0
1.040416897214502 0.7929392348941093 0.0
0.4604428393605979 0.7321209818568342 0.0
0.8729552856459739 0.7015083313474691 0.0
1.017010765275644 0.7166925631396708 0.0
0.6458785458483771 0.6946878992565794 0.0
0.7733575582969163 0.8941098392103913 0.0
0.4457537579383052 0.5273353624588528 0.0
0.163830623786951 0.3903175742448083 0.0
0.6095823984734953 0.8256600013628639 0.0
0.2618074352614998 0.5435604438425528 0.0
0.6287880420949764 0.5875838132975476 0.0
0.3100402147222924 0.4835410260423071 0.0
0.5422177893302824 0.5343158927797464 0.0
0.9964262112680041 0.8213447667248638 0.0
0.4971609598823845 0.6906859160718212 0.0
0.5740517260168769 0.633982031239429 0.0
0.7423299505107201 0.7218768583704394 0.0
0.767147744476665 0.819658485932403 0.0
0.9427329070375209 0.7774595780066723 0.0
0.8375285793481674 0.8869398470561132 0.0
0.2879426409425497 0.5872676364411625 0.0
0.6797562629663748 0.8647676397847667 0.0
1.171674168522591 0.6949964056806914 0.0
0.5261010885606964 0.6055079299963303 0.0
0.7081534744446967 0.8078672678314597 0.0
0.9681672688626206 0.705385299758921 0.0
0.7364069054947873 0.6432919177737106 0.0
0.363826821075015 0.5678764295233764 0.0
0.826170216989844 0.6605791783255148 0.0
0.1284439337099834 0.3602715082199688 0.0
0.518140828090112 0.783905985497134 0.0
0.8452908336054504 0.8167586152211004 0.0
0.2015204468558833 0.492088055688788 0.0
0.4005883523205732 0.7121294304856254 0.0
0.3551392316798573 0.4864133323669936 0.0
0.2501727034998737 0.4443035857235296 0.0
0.857938396055507 0.7390317828783199 0.0
0.9245301815433076 0.8668102132501951 0.0
0.5702050292970205 0.7323438487067678 0.0
1.111607633075016 0.759318252473435 0.0
0.6317193755596126 0.7853891653733797 0.0
0.7921381265818805 0.7497379312370454 0.0
1.088942426366261 0.7015435214091311 0.0
0.5818207607488639 0.5352340257544296 0.0
0.4203532416309484 0.6369649631143086 0.0
0.4854818714173937 0.5131439318707094 0.0
0.4475429831528036 0.5690430472086269 0.0
0.8968753306595262 0.8225547516037004 0.0
0.6339557898063448 0.8543470494763272 0.0
0.3416564411796998 0.6516449771136894 0.0
1.082970576264455 0.7856036465430698 0.0
0.2255204648032354 0.5229464838393291 0.0
0.7335043541589261 0.9012744999286941 0.0
0.9097052989734319 0.6921177492721042 0.0
0.5363428275528405 0.6992389299864537 0.0
0.9657777897300287 0.8588269742066746 0.0
1.025947476617909 0.7556651119714124 0.0
0.1090829970454354 0.3226173037985549 0.0
0.4836644525169279 0.7663103281018557 0.0
0.6910856326166581 0.777867529208468 0.0
0.6694391877434097 0.5946719355048008 0.0
0.2954883530575775 0.4501042133334518 0.0
0.6746032498128595 0.6643957640016517 0.0
1.054636636429828 0.6974583960183274 0.0
0.8939255235163368 0.7470597914537064 0.0
0.3749741568555516 0.6190655430398917 0.0
1.204101441114554 0.6801433534918062 0.0
0.6130053345415899 0.6785345531932346 0.0
0.7679719108452487 0.8562682874000032 0.0
0.9710820219997449 0.8008372590855476 0.0
0.1608022352294362 0.4242591696906621 0.0
0.2865399820604418 0.5141369963640697 0.0
0.1962258775846918 0.4008383427744516 0.0
0.6210920174972845 0.5516143721732873 0.0
0.4843009180093644 0.6583977883024127 0.0
0.5695029195102991 0.8267073580550881 0.0
0.9562891163300477 0.7436031251145003 0.0
0.4174190173896447 0.5044019081507806 0.0
0.410860431802698 0.5535781448116232 0.0
0.8709320861791604 0.9002602580953145 0.0
0.427354757192076 0.7399041791280969 0.0
0.7107884943357746 0.7172753954970394 0.0
1.030382288537246 0.8267335242583146 0.0
0.7737440530215844 0.7115751739064536 0.0
0.8042035044852396 0.9123190309183211 0.0
0.0480920891272324 0.2181807374272496 0.0
0.3695079235280397 0.6886893012630373 0.0
0.773516204411121 0.7830673827025234 0.0
0.302776671534508 0.6210168062901616 0.0
0.7150573728414059 0.6149413270404035 0.0
0.5863276441271683 0.769748656022605 0.0
1.143752049005473 0.6780480059671409 0.0
0.6477132714923303 0.7318578097016951 0.0
0.8380052680878572 0.8531154611905379 0.0
0.5966224054445893 0.6051703156405629 0.0
0.3207240819522855 0.5772784374275386 0.0
0.3520131451607586 0.5263918604440553 0.0
0.8573528491808811 0.6709738722470224 0.0
0.1797236573643203 0.460867988842514 0.0
0.5540828191547277 0.6661566975721369 0.0
1.158039843450239 0.7357536542887966 0.0
0.08638006908591334 0.286237566592474 0.0
0.790861820497242 0.6466611559014377 0.0
0.5362079962218838 0.8121454698907893 0.0
0.9405172130232713 0.6862060282668497 0.0
0.6039359324506977 0.711463595189489 0.0
0.4440093493753478 0.6096873538428137 0.0
0.5500746279087338 0.7620941994763282 0.0
0.2578504496023611 0.5739900063885278 0.0
0.502526452350101 0.6209820553182169 0.0
0.6799833858912959 0.7033681517905728 0.0
0.7183487148906835 0.7518430858176317 0.0
0.8006701240044786 0.8118713608014352 0.0
0.1304684854221093 0.3934039266496895 0.0
1.00789495394612 0.7937868725857601 0.0
0.696960396255943 0.893370944718147 0.0
0.8258315165019564 0.7538365084989149 0.0
0.8462950259502577 0.775614153529746 0.0
0.4082018839227037 0.6749460331934272 0.0
0.7025889307788081 0.8378536687159448 0.0
0.4666676520109517 0.6984557076050861 0.0
[...]
POINT_DATA 531

VECTORS Velocity float
0.0000000000000000 1.0000000000000000 0.0
0.0000000000000000 1.0000000000000000 0.0
2.6381806989978069 -0.9593352846988015 0.0
1.7825904847963685 1.0225291630877624 0.0
0.0000000000000000 1.0000000000000000 0.0
0.0000000000000000 1.0000000000000000 0.0
0.0000000000000000 1.0000000000000000 0.0
0.0000000000000000 1.0000000000000000 0.0
0.0000000000000000 1.0000000000000000 0.0
0.0000000000000000 1.0000000000000000 0.0
0.0000000000000000 1.0000000000000000 0.0
0.0000000000000000 1.0000000000000000 0.0
0.0000000000000000 1.0000000000000000 0.0
0.0000000000000000 1.0000000000000000 0.0
0.0000000000000000 1.0000000000000000 0.0
0.0000000000000000 1.0000000000000000 0.0
0.0000000000000000 1.0000000000000000 0.0
0.0000000000000000 1.0000000000000000 0.0
0.0000000000000000 1.0000000000000000 0.0
0.0000000000000000 1.0000000000000000 0.0
0.0000000000000000 0.0000000000000000 0.0
0.0000000000000000 0.0000000000000000 0.0
0.0000000000000000 0.0000000000000000 0.0
0.0000000000000000 0.0000000000000000 0.0
0.0000000000000000 0.0000000000000000 0.0
0.0000000000000000 0.0000000000000000 0.0
0.0000000000000000 0.0000000000000000 0.0
0.0000000000000000 0.0000000000000000 0.0
0.0000000000000000 0.0000000000000000 0.0
0.0000000000000000 0.0000000000000000 0.0
0.0000000000000000 0.0000000000000000 0.0
0.0000000000000000 0.0000000000000000 0.0
0.0000000000000000 0.0000000000000000 0.0
0.0000000000000000 0.0000000000000000 0.0
0.0000000000000000 0.0000000000000000 0.0
0.0000000000000000 0.0000000000000000 0.0
0.0000000000000000 0.0000000000000000 0.0
0.0000000000000000 0.0000000000000000 0.0
0.0000000000000000 0.0000000000000000 0.0
2.6783007922495381 -1.7943092492656518 0.0
3.6708854164928644 -2.3038133827647331 0.0
3.7613161788312706 -2.2277247980639250 0.0
3.7612473150295465 -1.9735393194043613 0.0
3.8440338289829330 -1.7530118233454668 0.0
3.9316551740037293 -1.4418946464517977 0.0
3.9769145129272725 -1.2730517336254628 0.0
4.0744143030283704 -1.0369024428177329 0.0
4.0199664347203168 -0.7249817295981527 0.0
3.9862022076156860 -0.4572928349026160 0.0
3.8483509055020813 -0.1696268432531613 0.0
3.6365459124859205 0.1152160017021130 0.0
3.4654680357810390 0.3382631764969737 0.0
3.1378034894423816 0.5688066464600953 0.0
2.5596013543554701 1.0871735137674565 0.0
1.7630331982754097 0.9491750616283963 0.0
0.0000000000000000 0.0000000000000000 0.0
0.0000000000000000 0.0000000000000000 0.0
0.0000000000000000 0.0000000000000000 0.0
0.0000000000000000 0.0000000000000000 0.0
0.0000000000000000 0.0000000000000000 0.0
0.0000000000000000 0.0000000000000000 0.0
0.0000000000000000 0.0000000000000000 0.0
0.0000000000000000 0.0000000000000000 0.0
0.0000000000000000 0.0000000000000000 0.0
0.0000000000000000 0.0000000000000000 0.0
0.0000000000000000 0.0000000000000000 0.0
0.0000000000000000 0.0000000000000000 0.0
0.0000000000000000 0.0000000000000000 0.0
0.0000000000000000 0.0000000000000000 0.0
0.0000000000000000 0.0000000000000000 0.0
0.0000000000000000 0.0000000000000000 0.0
0.0000000000000000 0.0000000000000000 0.0
0.0000000000000000 0.0000000000000000 0.0
0.0000000000000000 0.0000000000000000 0.0
0.0000000000000000 0.0000000000000000 0.0
0.0000000000000000 0.0000000000000000 0.0
0.0000000000000000 0.0000000000000000 0.0
0.0000000000000000 0.0000000000000000 0.0
0.0000000000000000 0.0000000000000000 0.0
0.0000000000000000 0.0000000000000000 0.0
0.0000000000000000 0.0000000000000000 0.0
0.0000000000000000 0.0000000000000000 0.0
0.0000000000000000 0.0000000000000000 0.0
3.9339823252201915 2.5907293718940005 0.0
4.2521822780758969 2.0681388047660829 0.0
3.9191011202038899 1.1402842147624574 0.0
3.8336436077843103 2.2059724039453976 0.0
3.8068832454187831 2.9209039877624909 0.0
3.5057683574556293 0.1136826723691643 0.0
3.9057260151602073 3.4829547460995642 0.0
3.7247193187964847 2.4367449046705230 0.0
3.7072602352271598 1.8712348618985133 0.0
3.5640504317855490 1.7126703000551273 0.0
2.8760427758561931 1.8413492248476924 0.0
3.4119183786008049 1.3477273461381896 0.0
3.2618592336452590 1.6767412558198804 0.0
3.1657734897386520 2.3681127357281735 0.0
3.2630622766845225 2.4890183255148459 0.0
3.0667648631067972 -0.4665041508188797 0.0
3.6090878831801398 3.8502833374295053 0.0
2.5120282580319566 2.1203784399805361 0.0
2.9527062097649490 1.4025347684977418 0.0
3.8670903891509316 0.5453101127738234 0.0
2.4545443973352721 0.3805006985438166 0.0
3.6017487323395270 1.1884136113274766 0.0
2.8029440804488188 2.6433821925537018 0.0
3.4917084179159077 4.5880426399003209 0.0
3.6227012360198683 2.6420817668469403 0.0
2.3179784873733151 1.3639750204561418 0.0
4.2945330852951749 2.2954375946659611 0.0
3.9681813448695404 2.5736262245468264 0.0
2.8734201633696936 -0.7845304419576691 0.0
4.0894590207720016 1.7275518241411552 0.0
2.5256275974311651 2.0531340875924511 0.0
2.5762867044365048 1.0601812093417926 0.0
3.8906118170865671 2.7168939719577070 0.0
2.7062476287613091 1.3506535202621632 0.0
3.8145794269010178 -0.3576647597061296 0.0
2.0110885824286147 1.4690283217187643 0.0
2.3379641697232314 0.6291220535352637 0.0
2.1783016429756383 0.0615623541482856 0.0
4.1143531728475295 2.4443134563609843 0.0
2.6299164478121604 1.6993051113191104 0.0
2.7972099887678628 2.4473643595995740 0.0
2.9347687734717902 4.7381212050705077 0.0
2.4205688003068331 1.2915513841852777 0.0
2.5252260103291038 2.8827508566041593 0.0
2.1799080157524240 1.6581158855646199 0.0
3.2828333576064761 3.5022763256094884 0.0
1.8350801463255833 1.7705264905940641 0.0
3.9173150061340780 -0.0290223973264266 0.0
3.5014789076363186 2.2947106598834677 0.0
3.8175265524970814 2.5566578253850230 0.0
3.9797995823990200 1.9332263695120859 0.0
4.0144218338340556 2.0227014907281342 0.0
3.6760388124017576 0.4704065995516008 0.0
3.0595058765716958 1.5487810679783682 0.0
1.6475143991842585 1.6812363699379780 0.0
2.3063001912072054 1.0914351006583867 0.0
2.8730112712573268 -1.0391175575653018 0.0
3.6854338383820591 2.5424817735289631 0.0
3.8863276054186056 1.9595553335485676 0.0
1.5084932657389785 0.0877322697545230 0.0
2.0215688945490151 1.0797029835450855 0.0
3.7306685012255283 3.1737978937302183 0.0
1.1554969189086397 0.4516376933058101 0.0
1.8313827433127334 3.2599805819334322 0.0
1.5160669410215140 0.8830821743767283 0.0
3.9355417712328422 1.5056114761762118 0.0
1.8405134407335169 2.2642045970758646 0.0
1.1096141371506794 0.7429235947811218 0.0
2.1174786965856942 2.3898977694567014 0.0
2.7841730071587851 3.3823675443771806 0.0
3.4131819464820681 1.0820126570276414 0.0
3.7000054398802669 0.6615979697526556 0.0
3.5858298782246250 2.2514913396258978 0.0
3.7602326652582585 -1.0912384722195301 0.0
3.3359213511288539 1.7909987972668844 0.0
4.0245583777853167 1.7229479749463241 0.0
1.6736030703277518 -0.3260505764087266 0.0
1.4261756015528289 1.5159476777779906 0.0
3.4404085271794549 2.6068385019707976 0.0
1.2893850882601650 1.7976990225102500 0.0
3.5898028089471032 2.7312868272142206 0.0
3.8684385145808058 1.0461575782150119 0.0
1.5097077191766344 0.7990983278620888 0.0
1.3757689569119282 1.3170070129673355 0.0
3.8983718406074899 -0.8572502039043661 0.0
1.8247914698436485 1.8434021242225294 0.0
1.5394396979418616 0.8501363937554026 0.0
1.3347180940043135 0.1619474792228355 0.0
3.7007228079668351 2.3769285547492345 0.0
3.8726793176137320 0.2025033400854816 0.0
3.2134827445567913 -0.2583645065836405 0.0
1.5934202351739444 3.1018881508322016 0.0
1.2221175357339300 1.0383930887005135 0.0
4.0971307139757744 2.1114904222584441 0.0
1.3187393454896463 0.8009785792925295 0.0
1.5285152390005872 2.7802095159553017 0.0
3.6392614897667861 2.0750006090423958 0.0
1.3724683396910191 -0.2592958037391950 0.0
3.4181251470355520 0.7974979272177207 0.0
3.1605607246700576 2.5117401877452621 0.0
2.6869561283433114 -1.4054905605054291 0.0
4.0268024380381586 2.5816748635564379 0.0
3.4360466742867071 1.9153403114078464 0.0
3.8116096937173967 0.2487504289705152 0.0
2.0001098586706436 3.0559270072934166 0.0
3.6248179689415831 3.6762223648274714 0.0
2.4431567248984418 4.0337741393848168 0.0
0.8540670001517854 0.8125191379451354 0.0
3.7336659976180755 2.5550177808712733 0.0
1.1018357425547849 0.5822673096034486 0.0
2.9688588964451115 0.2731650984085298 0.0
2.1144225434959782 2.2060019480017243 0.0
3.5860765235085417 2.8351135470798066 0.0
3.0428595835043812 1.0376757477645131 0.0
0.8468956069657528 0.6124174606927477 0.0
4.1224956120903897 2.0025632493635253 0.0
4.0187959935826276 -0.3709502154260393 0.0
3.5785847354063729 1.5927553836091126 0.0
2.2812407311611524 1.5674832948564845 0.0
0.7641786050489127 3.4574472068383511 0.0
0.9976048505000946 0.8613522843494201 0.0
4.1999062921754922 1.9332578201609005 0.0
1.3077948451836265 1.0455348084001161 0.0
1.2230732905218538 0.4743663338908007 0.0
3.1749306582729284 1.8799370516295921 0.0
1.4197072707905047 -0.2930728391640338 0.0
4.2189592937306823 2.4145614567473501 0.0
3.6749494882969436 1.6191322120441765 0.0
3.1443816681147263 2.2181342923662277 0.0
2.8965736608515504 3.0085489755817747 0.0
3.9227399507463523 3.2645709618268524 0.0
1.0045528942125674 0.3090580815549480 0.0
1.7261302328204515 2.4099723969752938 0.0
3.9978958237977116 2.5420113808776721 0.0
3.6889716775116352 -1.3791476947064234 0.0
1.2131521310877922 3.3076048000943952 0.0
1.1894614273950146 0.4818366956904125 0.0
0.9827412609428575 0.3922690742502289 0.0
0.9604731311343785 0.0566213318678476 0.0
4.0714493878936411 2.4513220143808265 0.0
3.8123547902125652 2.8412112285606925 0.0
2.8015779177690057 1.6592719705616863 0.0
1.0315686683173944 1.4868248245557609 0.0
3.9092641116152085 2.6358284426891503 0.0
4.1126960853598717 2.3161469085794555 0.0
4.2630715883898604 2.1417126353535858 0.0
4.0345412817051072 1.8435173391942141 0.0
1.6335801110419730 2.3202079742028219 0.0
3.8027602589118938 -0.0998952019747974 0.0
1.2503864999643952 0.6236605222039789 0.0
3.8783708862375366 1.4911167160999117 0.0
3.9456581378850362 1.3684204649817233 0.0
2.5712879196604868 1.7794143781041438 0.0
3.1160094926430064 1.5094679867330869 0.0
3.0833335584078139 2.1119738513724640 0.0
3.0497918401260860 1.9396364354816578 0.0
3.3621371049097339 1.7277578317312614 0.0
3.9996306682074012 2.2404477058776631 0.0
1.1090910079426268 0.1578323826089796 0.0
2.8707091473837303 2.1195042443204435 0.0
2.5014998835188913 0.8590445823137737 0.0
2.7668355165079288 2.0189047206051098 0.0
2.5286804322910812 -0.0174985544253668 0.0
4.0725478319397466 -0.6703445552987782 0.0
0.9401514961176178 0.9576970721760694 0.0
2.3130813177616774 -1.0760690140303071 0.0
4.0020666286836750 2.5741173027639439 0.0
2.8378038472906773 1.4266278658441511 0.0
3.1037741549740807 1.8037536831559167 0.0
3.4913488128324000 3.9782619914635049 0.0
0.5337733562400730 1.6424509164865093 0.0
3.7268915597067878 2.7284126451313329 0.0
1.5434667647101687 1.8401271166587256 0.0
2.9412014121315830 -0.6744706977371954 0.0
3.7995920380279991 0.8199604753280394 0.0
3.5859673280477997 2.4589337944992482 0.0
0.6487798593228872 0.5158847091127323 0.0
1.1995775927082588 2.2396126687024140 0.0
3.1060996103363929 2.7568800852277469 0.0
1.7180458283516578 2.9228124686381198 0.0
1.0161500713101701 1.8885044195616061 0.0
0.8262456967665519 1.5827315264222088 0.0
1.6637669712269683 3.0813966825754080 0.0
1.4544399633393736 1.1749930676116676 0.0
2.1902385999871092 -1.4149884350271873 0.0
2.1402315317194676 1.6032432526308995 0.0
0.6879837925072947 0.3005393034663456 0.0
0.7707169349890127 0.5853691630749497 0.0
3.9144203343112411 3.4640096495748720 0.0
1.2792113937297387 -0.0749200941091114 0.0
3.2840315394622057 0.8328962968349790 0.0
3.9539393456932115 -0.0973911772932494 0.0
3.8479866474925544 2.3835081642174045 0.0
1.1250736905812924 3.3292141329606637 0.0
2.6308080838569148 0.6984932581047174 0.0
0.6146232643288102 0.3712657693983631 0.0
3.4987611863487986 -0.4202092921795743 0.0
3.6685231055747871 2.6542284614361025 0.0
0.7890236212995112 -0.0109551704913570 0.0
2.6545629392073242 -0.2338231770817799 0.0
2.7123237338237458 1.4571378554545265 0.0
3.6939878380082272 -1.7245500253903754 0.0
0.8456970690474848 0.1089811921411141 0.0
2.4881854631314875 1.5657654692117480 0.0
2.8574999623611492 2.4035928324928459 0.0
2.2326662235511820 1.9504384969965298 0.0
3.8713039121085533 2.5319651569901795 0.0
3.7782663596217665 1.8977226371185638 0.0
2.5579873005288731 1.0982042790784798 0.0
3.7071436131240270 3.7870493049095257 0.0
4.1519920724259656 2.0519495690759966 0.0
0.9519458598666046 0.6004504668819254 0.0
3.1437878027508552 3.2387312901840888 0.0
2.7440156649865033 1.6554736870635760 0.0
4.1898075650627380 2.1429859801550526 0.0
4.1196250747752812 1.9501453790858965 0.0
3.0845167571020213 2.1988117559143920 0.0
3.7110766751603328 2.5603814790388046 0.0
1.2634699487275982 -0.7685906983253074 0.0
3.3843039446921837 0.6522207164513460 0.0
3.9059081609022699 0.1864880376833244 0.0
1.6698433318204868 4.0683849806094186 0.0
2.2673915177237824 1.8819810073138141 0.0
0.7164918246820209 0.6029868096909983 0.0
3.9489429516751318 2.5810583501219821 0.0
4.2457685904644675 2.0759638390953024 0.0
3.9185905688309179 1.1589572541160329 0.0
3.8053714474978384 2.1890959725835852 0.0
3.8144442993385796 2.9054792724702567 0.0
3.5065044926337099 0.1243788617726524 0.0
3.9091833952108423 3.4760916845291865 0.0
3.7588496726866976 2.4565523249261951 0.0
3.6734522328338257 1.8825397014006917 0.0
3.6025982041387619 1.7355409673940649 0.0
2.8417735423052131 1.8135072518088804 0.0
3.4436023038287473 1.3672254113559474 0.0
3.2202225666071231 1.6595845415700277 0.0
3.1474051765699560 2.3393237979392190 0.0
3.2948864606778057 2.4851342661988949 0.0
3.0671278555079233 -0.4653941788540689 0.0
3.6093354561545601 3.8499342249957644 0.0
2.5480832252093282 2.1332109453653372 0.0
2.9141093977274881 1.3942609375162489 0.0
3.8557493719441425 0.5581181019403988 0.0
2.4702427300816745 0.3903798175017569 0.0
3.5781088997833357 1.1988630413738592 0.0
2.7997895695856205 2.6309941210686763 0.0
3.4915902649666708 4.5881366870481282 0.0
3.6343216380690659 2.6383693538042374 0.0
2.2799796878804495 1.3418252020217638 0.0
4.2946897263935346 2.2986957579331633 0.0
3.9637878142335916 2.5638880632381906 0.0
2.8733278728729217 -0.7847203818618398 0.0
4.0856462913230915 1.7473142647953894 0.0
2.5138233899882021 2.0336978245937818 0.0
2.6144185155277824 1.0773872094278729 0.0
3.9020574207519472 2.6989728419354839 0.0
2.7483016489621988 1.3727037916147211 0.0
3.8134287499379829 -0.3538788564150076 0.0
1.9831389806417823 1.4460075487458846 0.0
2.3650819716977218 0.6391524238972116 0.0
2.1814846758611086 0.0653770985997758 0.0
4.1320263602517606 2.4556594277731092 0.0
2.5997907106380156 1.6979119235529749 0.0
2.8194483860917070 2.4466418616913570 0.0
2.9347339715005107 4.7381457776727522 0.0
2.3825419879337417 1.2716976338261408 0.0
2.5257707944058163 2.8813316026187419 0.0
2.2156714570866329 1.6826845019595607 0.0
3.2845694729217843 3.5013943472416096 0.0
1.8658466648866161 1.7750772813455351 0.0
3.9112580580274741 -0.0218871631491670 0.0
3.4774443570625775 2.2669793212866378 0.0
3.8457887704351159 2.5614679793100574 0.0
4.0075567826513501 1.9497021817957574 0.0
3.9829096800786381 2.0279874734229049 0.0
3.6742526097756705 0.4842642190245133 0.0
3.0382230620066140 1.5535742183307353 0.0
1.6464008565370980 1.6776907552316034 0.0
2.2694598132284041 1.0773899761237959 0.0
2.8729444759846645 -1.0392937054530775 0.0
3.7137571733485761 2.5420533101089400 0.0
3.8498127394154023 1.9490358828581855 0.0
1.5177349451275810 0.0938593046570340 0.0
2.0560622556246049 1.0970670158721616 0.0
3.7358012928863298 3.1628123442803049 0.0
1.1781617249863834 0.4606655527972933 0.0
1.8313757656107452 3.2599904992324653 0.0
1.4888467543412487 0.8656088831268096 0.0
3.9161356153578679 1.5227899358242509 0.0
1.8406219217330937 2.2644391357077160 0.0
1.0955025691239904 0.7303657018286829 0.0
2.1229969982469523 2.3885003602064461 0.0
2.7839713521427827 3.3822419401954167 0.0
3.4336186171522329 1.1002964013655492 0.0
3.6863452581075298 0.6695361029174033 0.0
3.5577870990700906 2.2279727127218907 0.0
3.7605367833373005 -1.0914549544888690 0.0
3.2954124400498213 1.7711304758746866 0.0
4.0415306629972694 1.7413639699213390 0.0
1.6732291559381607 -0.3259769984180238 0.0
1.4512476792768771 1.5265100422566076 0.0
3.4348760847013393 2.5844379100371415 0.0
1.3084495021304610 1.7991226682410861 0.0
3.6108248613753533 2.7214939810365437 0.0
3.8527416238597527 1.0629892063676574 0.0
1.4808860116971798 0.7848687038764569 0.0
1.3690278564424774 1.3064074440688564 0.0
3.8986508122218644 -0.8564200804014231 0.0
1.8250648025421141 1.8433220147546689 0.0
1.5176862421732527 0.8462894064183532 0.0
1.3503295706218388 0.1679929213024861 0.0
3.6786512719668805 2.3548650907193300 0.0
3.8647253098522993 0.2079308611400221 0.0
3.2146589073193148 -0.2520254998966773 0.0
1.5934201056046298 3.1018869630404335 0.0
1.1986454657686785 1.0180271952223383 0.0
4.0707210617916996 2.1042406609037059 0.0
1.3471382846648670 0.8176504162867609 0.0
1.5286275357745214 2.7801118325054324 0.0
3.6782555216694766 2.0970293919421419 0.0
1.3728892996491182 -0.2581662588913948 0.0
3.4285490209919747 0.8141601758405885 0.0
3.1576614990504250 2.4925110860212918 0.0
2.6869504138316302 -1.4055229257213995 0.0
4.0431762352579641 2.5890601033172067 0.0
3.3975039562603726 1.9148709708878082 0.0
3.8063277362771659 0.2590854741217004 0.0
2.0000878189845070 3.0560364344095774 0.0
3.6263315116219914 3.6739244371471327 0.0
2.4430433761094346 4.0338014808687417 0.0
0.8730551205976019 0.8279386064809574 0.0
3.7271580022612554 2.5308995206851135 0.0
1.0778531464299546 0.5698642888806288 0.0
2.9768524681848074 0.2840834341099214 0.0
2.1278284665429084 2.2058262756905127 0.0
3.6025280549787060 2.8269132561089791 0.0
3.0281095991653029 1.0432885659541100 0.0
0.8319127666432926 0.6000391764148235 0.0
4.1472394632612515 2.0186565797954854 0.0
4.0161813639518300 -0.3680564093408406 0.0
3.6129795132035754 1.6124826721193615 0.0
2.2649270056288762 1.5682123559255949 0.0
0.7641786050489128 3.4574472068383519 0.0
0.9874471741001791 0.8496802117812559 0.0
4.1910998307585556 1.9462883385690646 0.0
1.3052844491971820 1.0406092427773126 0.0
1.2510928528676639 0.4866942091522842 0.0
3.1345140936391642 1.8564107307519897 0.0
1.4194607291068861 -0.2931111541173614 0.0
4.2159584181859175 2.4151856800261471 0.0
3.6441508312615043 1.6293104540130137 0.0
3.1835124921411388 2.2371066278096956 0.0
2.8951164970214642 2.9993130909000665 0.0
3.9308108712241232 3.2599721318133454 0.0
1.0236454093031351 0.3154907265370649 0.0
1.7261736673313310 2.4101752124344400 0.0
4.0028726964835899 2.5335676781881578 0.0
3.6891089959074912 -1.3794308558465782 0.0
1.2131527032862250 3.3076047921187608 0.0
1.2141421189876693 0.4924841324555433 0.0
0.9592100510025406 0.3819080637724308 0.0
0.9722421048978493 0.0598809647323765 0.0
4.0653577874887734 2.4427944927336651 0.0
3.8231269078518255 2.8216545478380217 0.0
2.7635750199601379 1.6341269745418778 0.0
1.0312782467915418 1.4850240767444003 0.0
3.9248711947114656 2.6217277111024555 0.0
4.1351472472170228 2.3309571633790309 0.0
4.2671376040523050 2.1484581806901364 0.0
4.0102654584192026 1.8574993793765844 0.0
1.6335672559999177 2.3202407887560450 0.0
3.8003373427923983 -0.0917440785935104 0.0
1.2288226325404263 0.6154609147098022 0.0
3.8928777687377019 1.5111364859831691 0.0
3.9464459848633728 1.3909225712206927 0.0
2.5548410232191210 1.7583052366870453 0.0
3.0747856504317062 1.4990066338861094 0.0
3.0583562469804115 2.0841673717832814 0.0
3.0925210733094701 1.9649509139920127 0.0
3.4023391776849476 1.7475661631597448 0.0
3.9702030466689524 2.2299138053090304 0.0
1.1142133781069903 0.1603101161547425 0.0
2.9076486484648498 2.1220867231320817 0.0
2.5336109179576778 0.8748040902550593 0.0
2.7356350600893284 1.9924531155397298 0.0
2.5346896989628371 -0.0096587532880063 0.0
4.0719254032382075 -0.6691784112490892 0.0
0.9401880844548619 0.9572838638257452 0.0
2.3130794581302916 -1.0760660278107526 0.0