# vtk DataFile Version 3.0
LucasCarvalhoTCC Results
ASCII

DATASET POLYDATA
FIELD FieldData 1
TIME 1 1 double
5.4

POINTS 531 float
0.02430399999999999 0.16425 0.0
0.5913384 0.481878 0.0
1.30475 0.591832 0.0
0.774126 0.951272 0.0
0.04779564148251592 0.1966194329439859 0.0
0.0726092153537953 0.2279866320496896 0.0
0.09876577335895967 0.2582426022760065 0.0
0.1262817198684718 0.2872673048853742 0.0
0.1551671626852806 0.3149288071400502 0.0
0.1854238368919928 0.3410826624766006 0.0
0.2170424591499632 0.3655716640299072 0.0
0.2499995164635996 0.3882263409476824 0.0
0.2842534387828506 0.4088665906889567 0.0
0.3197403359862048 0.4273050841371062 0.0
0.3563695945475563 0.4433531534921038 0.0
0.3940201673622058 0.4568300511916809 0.0
0.4325386107291805 0.4675762214989666 0.0
0.4717406913237268 0.4754709112408955 0.0
0.5114182513144845 0.480453442081874 0.0
0.5513531678859215 0.4825464217651069 0.0
0.6182637923774223 0.5096055604109244 0.0
0.647389101376845 0.5350126187545199 0.0
0.6784752958296183 0.5579802184492302 0.0
0.7112421079139344 0.5784810076698811 0.0
0.7454110434104482 0.5965507527581431 0.0
0.7807301979183381 0.6122562812860965 0.0
0.8169827939052532 0.6256694297140926 0.0
0.853985522124928 0.6368498290413532 0.0
0.8915818964261243 0.6458353363890481 0.0
0.9296339776508085 0.6526379336565091 0.0
0.9680139759519513 0.6572432424840469 0.0
1.006596418266983 0.659612648128084 0.0
1.045251165872634 0.6596877658251245 0.0
1.083837680945672 0.657397570658483 0.0
1.122201320191055 0.6526688455666412 0.0
1.160173053543044 0.6454405726452737 0.0
1.197574286953346 0.6356824063786186 0.0
1.23422961949795 0.6234159704281613 0.0
1.26998758503999 0.6087366500005643 0.0
1.285086682927543 0.6256533177085738 0.0
1.263669745906668 0.6583917156018083 0.0
1.240480125919214 0.6898988493917133 0.0
1.215532715641304 0.7200329197235763 0.0
1.188869833862339 0.7486599839005789 0.0
1.160556835593143 0.7756559317113654 0.0
1.130680194163798 0.8009104211039757 0.0
1.099347083827048 0.8243335727704395 0.0
1.066684425336412 0.8458643604021228 0.0
1.03283497048792 0.8654772531176074 0.0
0.9979492572630678 0.8831824104874066 0.0
0.9621749986495024 0.8990166556695112 0.0
0.9256475378616493 0.9130272060048579 0.0
0.8884846540507749 0.9252538945090274 0.0
0.8507866567183312 0.935715378288671 0.0
0.8126405010322847 0.9444016349017643 0.0
0.7365055179612304 0.9396161853607135 0.0
0.699310855231089 0.9266666891603924 0.0
0.6626179171945521 0.9123577070090924 0.0
0.6264901449910028 0.8966765244755546 0.0
0.5909789825447118 0.8796450886595113 0.0
0.556124897941028 0.8613059841617771 0.0
0.5219601957009091 0.8417124664434518 0.0
0.4885110616878257 0.8209207172498462 0.0
0.4558007060429968 0.7989848675704875 0.0
0.4238520247653796 0.775953675763176 0.0
0.3926900138417566 0.7518687036338616 0.0
0.3623437622133722 0.7267636709390595 0.0
0.3328479550295906 0.7006647540504483 0.0
0.3042438201183181 0.6735915983461908 0.0
0.2765795358619001 0.6455588748284606 0.0
0.2499101143933102 0.6165781952942546 0.0
0.2242967982692083 0.5866601984136335 0.0
0.1998060807431611 0.5558166834807132 0.0
0.1765083808984156 0.5240625786010467 0.0
0.154476512720734 0.491417660368959 0.0
0.133784033184808 0.457907916333494 0.0
0.114503564227142 0.4235664945146766 0.0
0.09670517293008124 0.3884342245925089 0.0
0.0804548910754031 0.3525597611689231 0.0
0.06581337946329963 0.3159993090744527 0.0
0.05283482490365372 0.2788161107032479 0.0
0.0415660226296666 0.2410796291505872 0.0
0.03204569406625649 0.2028646095712164 0.0
0.5272009874003867 0.6419624505772817 0.0
0.7421848286576707 0.7716726266421574 0.0
0.8789503364783713 0.7829234141383637 0.0
0.6149390992905563 0.7449438030688011 0.0
0.4064556042659638 0.5942834991165423 0.0
0.9875021850865396 0.7666507358101158 0.0
0.3188065960661005 0.539594034984892 0.0
0.61365100263957 0.6399487878797632 0.0
0.8049090660915541 0.8464379870891131 0.0
0.7099820328572021 0.6828840522539854 0.0
0.5239467234991928 0.7406922291088611 0.0
0.8154056325591208 0.7211774015928547 0.0
0.6676178829014909 0.8152713180209475 0.0
0.4416080359619968 0.674360953773491 0.0
0.489443615375965 0.5654986742123573 0.0
1.076665773779852 0.7387182918829318 0.0
0.250390543112057 0.4877450112830265 0.0
0.5736819937919005 0.5790366884881447 0.0
0.7263706755366466 0.8615301097563091 0.0
0.940143307772686 0.8233944909985552 0.0
0.927065543677544 0.7236459161626674 0.0
0.8744389806957806 0.8609114380468947 0.0
0.336888362650554 0.6081958070931937 0.0
0.2030757334857187 0.4383942902513459 0.0
0.3861483329720647 0.5255533415902591 0.0
0.5621001921466506 0.7923778419149285 0.0
0.6822897332295245 0.7428043323059399 0.0
0.5764061681675353 0.6881266532454204 0.0
1.129195449682892 0.7163224153578123 0.0
0.8157794419559141 0.7831214907157077 0.0
0.3806644703311284 0.6554275822782399 0.0
0.7695737871052837 0.669593045341503 0.0
0.4699375460410929 0.6217118815516158 0.0
0.6830867370872363 0.630350317562806 0.0
1.040416897214502 0.7929392348941093 0.0
0.4604428393605979 0.7321209818568342 0.0
0.8729552856459739 0.7015083313474691 0.0
1.017010765275644 0.7166925631396708 0.0
0.6458785458483771 0.6946878992565794 0.0
0.7733575582969163 0.8941098392103913 0.0
0.4457537579383052 0.5273353624588528 0.0
0.163830623786951 0.3903175742448083 0.0
0.6095823984734953 0.8256600013628639 0.0
0.2618074352614998 0.5435604438425528 0.0
0.6287880420949764 0.5875838132975476 0.0
0.3100402147222924 0.4835410260423071 0.0
0.5422177893302824 0.5343158927797464 0.0
0.9964262112680041 0.8213447667248638 0.0
0.4971609598823845 0.6906859160718212 0.0
0.5740517260168769 0.633982031239429 0.0
0.7423299505107201 0.7218768583704394 0.0
0.767147744476665 0.819658485932403 0.0
0.9427329070375209 0.7774595780066723 0.0
0.8375285793481674 0.8869398470561132 0.0
0.2879426409425497 0.5872676364411625 0.0
0.6797562629663748 0.8647676397847667 0.0
1.171674168522591 0.6949964056806914 0.0
0.5261010885606964 0.6055079299963303 0.0
0.7081534744446967 0.8078672678314597 0.0
0.9681672688626206 0.705385299758921 0.0
0.7364069054947873 0.6432919177737106 0.0
0.363826821075015 0.5678764295233764 0.0
0.826170216989844 0.6605791783255148 0.0
0.1284439337099834 0.3602715082199688 0.0
0.518140828090112 0.783905985497134 0.0
0.8452908336054504 0.8167586152211004 0.0
0.2015204468558833 0.492088055688788 0.0
0.4005883523205732 0.7121294304856254 0.0
0.3551392316798573 0.4864133323669936 0.0
0.2501727034998737 0.4443035857235296 0.0
0.857938396055507 0.7390317828783199 0.0
0.9245301815433076 0.8668102132501951 0.0
0.5702050292970205 0.7323438487067678 0.0
1.111607633075016 0.759318252473435 0.0
0.6317193755596126 0.7853891653733797 0.0
0.7921381265818805 0.7497379312370454 0.0
1.088942426366261 0.7015435214091311 0.0
0.5818207607488639 0.5352340257544296 0.0
0.4203532416309484 0.6369649631143086 0.0
0.4854818714173937 0.5131439318707094 0.0
0.4475429831528036 0.5690430472086269 0.0
0.8968753306595262 0.8225547516037004 0.0
0.6339557898063448 0.8543470494763272 0.0
0.3416564411796998 0.6516449771136894 0.0
1.082970576264455 0.7856036465430698 0.0
0.2255204648032354 0.5229464838393291 0.0
0.7335043541589261 0.9012744999286941 0.0
0.9097052989734319 0.6921177492721042 0.0
0.5363428275528405 0.6992389299864537 0.0
0.9657777897300287 0.8588269742066746 0.0
1.025947476617909 0.7556651119714124 0.0
0.1090829970454354 0.3226173037985549 0.0
0.4836644525169279 0.7663103281018557 0.0
0.6910856326166581 0.777867529208468 0.0
0.6694391877434097 0.5946719355048008 0.0
0.2954883530575775 0.4501042133334518 0.0
0.6746032498128595 0.6643957640016517 0.0
1.054636636429828 0.6974583960183274 0.0
0.8939255235163368 0.7470597914537064 0.0
0.3749741568555516 0.6190655430398917 0.0
1.204101441114554 0.6801433534918062 0.0
0.6130053345415899 0.6785345531932346 0.0
0.7679719108452487 0.8562682874000032 0.0
0.9710820219997449 0.8008372590855476 0.0
0.1608022352294362 0.4242591696906621 0.0
0.2865399820604418 0.5141369963640697 0.0
0.1962258775846918 0.4008383427744516 0.0
0.6210920174972845 0.5516143721732873 0.0
0.4843009180093644 0.6583977883024127 0.0
0.5695029195102991 0.8267073580550881 0.0
0.9562891163300477 0.7436031251145003 0.0
0.4174190173896447 0.5044019081507806 0.0
0.410860431802698 0.5535781448116232 0.0
0.8709320861791604 0.9002602580953145 0.0
0.427354757192076 0.7399041791280969 0.0
0.7107884943357746 0.7172753954970394 0.0
1.030382288537246 0.8267335242583146 0.0
0.7737440530215844 0.7115751739064536 0.0
0.8042035044852396 0.9123190309183211 0.0
0.0480920891272324 0.2181807374272496 0.0
0.3695079235280397 0.6886893012630373 0.0
0.773516204411121 0.7830673827025234 0.0
0.302776671534508 0.6210168062901616 0.0
0.7150573728414059 0.6149413270404035 0.0
0.5863276441271683 0.769748656022605 0.0
1.143752049005473 0.6780480059671409 0.0
0.6477132714923303 0.7318578097016951 0.0
0.8380052680878572 0.8531154611905379 0.0
0.5966224054445893 0.6051703156405629 0.0
0.3207240819522855 0.5772784374275386 0.0
0.3520131451607586 0.5263918604440553 0.0
0.8573528491808811 0.6709738722470224 0.0
0.1797236573643203 0.460867988842514 0.0
0.5540828191547277 0.6661566975721369 0.0
1.158039843450239 0.7357536542887966 0.0
0.08638006908591334 0.286237566592474 0.0
0.790861820497242 0.6466611559014377 0.0
0.5362079962218838 0.8121454698907893 0.0
0.9405172130232713 0.6862060282668497 0.0
0.6039359324506977 0.711463595189489 0.0
0.4440093493753478 0.6096873538428137 0.0
0.5500746279087338 0.7620941994763282 0.0
0.2578504496023611 0.5739900063885278 0.0
0.502526452350101 0.6209820553182169 0.0
0.6799833858912959 0.7033681517905728 0.0
0.7183487148906835 0.7518430858176317 0.0
0.8006701240044786 0.8118713608014352 0.0
0.1304684854221093 0.3934039266496895 0.0
1.00789495394612 0.7937868725857601 0.0
0.696960396255943 0.893370944718147 0.0
0.8258315165019564 0.7538365084989149 0.0
0.8462950259502577 0.775614153529746 0.0
0.4082018839227037 0.6749460331934272 0.0
0.7025889307788081 0.8378536687159448 0.0
0.4666676520109517 0.6984557076050861 0.0
[...]
POINT_DATA 531

VECTORS Velocity float
0.0000000000000000 1.0000000000000000 0.0
0.0000000000000000 1.0000000000000000 0.0
2.6381909603481404 -0.9593299988934516 0.0
1.7824975973369026 1.0217568829907517 0.0
0.0000000000000000 1.0000000000000000 0.0
0.0000000000000000 1.0000000000000000 0.0
0.0000000000000000 1.0000000000000000 0.0
0.0000000000000000 1.0000000000000000 0.0
0.0000000000000000 1.0000000000000000 0.0
0.0000000000000000 1.0000000000000000 0.0
0.0000000000000000 1.0000000000000000 0.0
0.0000000000000000 1.0000000000000000 0.0
0.0000000000000000 1.0000000000000000 0.0
0.0000000000000000 1.0000000000000000 0.0
0.0000000000000000 1.0000000000000000 0.0
0.0000000000000000 1.0000000000000000 0.0
0.0000000000000000 1.0000000000000000 0.0
0.0000000000000000 1.0000000000000000 0.0
0.0000000000000000 1.0000000000000000 0.0
0.0000000000000000 1.0000000000000000 0.0
0.0000000000000000 0.0000000000000000 0.0
0.0000000000000000 0.0000000000000000 0.0
0.0000000000000000 0.0000000000000000 0.0
0.0000000000000000 0.0000000000000000 0.0
0.0000000000000000 0.0000000000000000 0.0
0.0000000000000000 0.0000000000000000 0.0
0.0000000000000000 0.0000000000000000 0.0
0.0000000000000000 0.0000000000000000 0.0
0.0000000000000000 0.0000000000000000 0.0
0.0000000000000000 0.0000000000000000 0.0
0.0000000000000000 0.0000000000000000 0.0
0.0000000000000000 0.0000000000000000 0.0
0.0000000000000000 0.0000000000000000 0.0
0.0000000000000000 0.0000000000000000 0.0
0.0000000000000000 0.0000000000000000 0.0
0.0000000000000000 0.0000000000000000 0.0
0.0000000000000000 0.0000000000000000 0.0
0.0000000000000000 0.0000000000000000 0.0
0.0000000000000000 0.0000000000000000 0.0
2.6783010190501200 -1.7943038792965569 0.0
3.6707114975038984 -2.3036442439799765 0.0
3.7614842653882534 -2.2272236517479000 0.0
3.7623589951315783 -1.9754290933221215 0.0
3.8543401583318495 -1.7622480083467573 0.0
3.9595334712332475 -1.4636637367013898 0.0
4.0214752965594327 -1.3120781282090221 0.0
4.1506380742366966 -1.0888580648543078 0.0
4.1393724782577204 -0.7965707951438841 0.0
4.1248597422583257 -0.5327406152042309 0.0
3.9935530025859935 -0.2387710129792838 0.0
3.7733154276895884 0.0594253414023109 0.0
3.5833307563595271 0.2914143952084436 0.0
3.2205985819945675 0.5404722625822398 0.0
2.5964298770173699 1.0888563325779375 0.0
1.7552792588119890 0.9407232456328901 0.0
0.0000000000000000 0.0000000000000000 0.0
0.0000000000000000 0.0000000000000000 0.0
0.0000000000000000 0.0000000000000000 0.0
0.0000000000000000 0.0000000000000000 0.0
0.0000000000000000 0.0000000000000000 0.0
0.0000000000000000 0.0000000000000000 0.0
0.0000000000000000 0.0000000000000000 0.0
0.0000000000000000 0.0000000000000000 0.0
0.0000000000000000 0.0000000000000000 0.0
0.0000000000000000 0.0000000000000000 0.0
0.0000000000000000 0.0000000000000000 0.0
0.0000000000000000 0.0000000000000000 0.0
0.0000000000000000 0.0000000000000000 0.0
0.0000000000000000 0.0000000000000000 0.0
0.0000000000000000 0.0000000000000000 0.0
0.0000000000000000 0.0000000000000000 0.0
0.0000000000000000 0.0000000000000000 0.0
0.0000000000000000 0.0000000000000000 0.0
0.0000000000000000 0.0000000000000000 0.0
0.0000000000000000 0.0000000000000000 0.0
0.0000000000000000 0.0000000000000000 0.0
0.0000000000000000 0.0000000000000000 0.0
0.0000000000000000 0.0000000000000000 0.0
0.0000000000000000 0.0000000000000000 0.0
0.0000000000000000 0.0000000000000000 0.0
0.0000000000000000 0.0000000000000000 0.0
0.0000000000000000 0.0000000000000000 0.0
0.0000000000000000 0.0000000000000000 0.0
3.9920436140625060 2.6035530329364387 0.0
4.2933018934894704 2.1465808099258989 0.0
3.9133525212144065 1.1791504825580679 0.0
3.8358571079125219 2.2072058874615275 0.0
3.8187037094872487 2.9208980446695545 0.0
3.4415503412274924 0.0809765720135059 0.0
3.9082672745829221 3.4773460955792004 0.0
3.7716520325080518 2.4448608889290888 0.0
3.7490527312552508 1.9499336116886470 0.0
3.5741918075630505 1.7346318474293223 0.0
2.8441966461587849 1.8044750653882904 0.0
3.3578521459467536 1.3749604582523332 0.0
3.2239177879578156 1.6704245772691260 0.0
3.1617048716334368 2.3480358505247110 0.0
3.2670625124448973 2.5097406278789633 0.0
3.0265636278630046 -0.4954314482538468 0.0
3.6098910296889968 3.8488160972525050 0.0
2.5019657279611982 2.1153136206649368 0.0
2.9160469116758669 1.4057587384338857 0.0
3.9213527372641233 0.5420111688650253 0.0
2.3420224906593750 0.3681039064140392 0.0
3.6754562089632619 1.2270864942910256 0.0
2.7991475515795639 2.6321987560756126 0.0
3.4916900870350265 4.5880037247973506 0.0
3.6309040647377162 2.6434504545597597 0.0
2.2631110271761052 1.3308536564121445 0.0
4.3350845105861193 2.3465723441547857 0.0
4.0159001577299751 2.5834153515959919 0.0
2.8538937459064271 -0.7924476575078396 0.0
4.1184242835969807 1.8036800156988966 0.0
2.5169625254656642 2.0353342261885459 0.0
2.5415506322737729 1.0667932357565553 0.0
3.9285952916306552 2.7318829707652661 0.0
2.7067031805986446 1.3439855137619277 0.0
3.8234995943958650 -0.4198945244216924 0.0
1.9772584926356480 1.4399367539496613 0.0
2.2420748909754060 0.6146358210631541 0.0
2.0974546575699557 0.0433402136831805 0.0
4.1669267305976287 2.4750791550136730 0.0
2.6124741746193680 1.7107767153188456 0.0
2.8007881196024353 2.4549724234695680 0.0
2.9347248428713351 4.7381415174620241 0.0
2.3683371280494256 1.2639990223479043 0.0
2.5248203715148474 2.8798302741950246 0.0
2.1688025764296284 1.6415470745086000 0.0
3.2862177978660903 3.5020037230593641 0.0
1.8133407565242150 1.7688714742982969 0.0
3.9797928305009607 -0.0835852866768488 0.0
3.5044833689100749 2.2729203105483662 0.0
3.8759071965353056 2.5705365830541127 0.0
3.9929165891148197 1.9942068007978753 0.0
4.0515733104326506 2.0985020079347669 0.0
3.6364504089667924 0.4575950393394226 0.0
3.1077355301856184 1.5903274197494464 0.0
1.6452190498287644 1.6772169838228339 0.0
2.2546032057461765 1.0721680951252450 0.0
2.8660546050075100 -1.0472702114282806 0.0
3.7223829894759080 2.5603162142708085 0.0
3.8877390510802869 1.9858420911707955 0.0
1.4269651047343428 0.0761370612381769 0.0
2.0094089637920294 1.0897910157558153 0.0
3.7348713413306585 3.1688614771833934 0.0
1.1146095766292237 0.4433663762136692 0.0
1.8313770325951084 3.2599897256306707 0.0
1.4809245402372311 0.8580182826514626 0.0
3.9872639354996617 1.5718529837163235 0.0
1.8405593734256620 2.2639507132314014 0.0
1.0953074377740666 0.7286669643092986 0.0
2.1228349284150219 2.3897099983550212 0.0
2.7846770476756606 3.3820631335258859 0.0
3.3415889005985870 1.0953013524011124 0.0
3.8075890646910895 0.6562270610328379 0.0
3.5837506853270105 2.2331194128088598 0.0
3.7620968291389074 -1.1231113284117380 0.0
3.2987546899565259 1.7769683900460136 0.0
4.0279707316331939 1.7893584322264848 0.0
1.6439434555420247 -0.3327892064495408 0.0
1.4076133468663541 1.5084582397333530 0.0
3.4468253961874420 2.5949215326551176 0.0
1.2839448823608381 1.8017722471433448 0.0
3.6012722117874905 2.7468795725661903 0.0
3.9263540853803827 1.0833404088538610 0.0
1.4718460365545121 0.7797527047962455 0.0
1.3701115803479240 1.3073406949040463 0.0
3.9141954342313365 -0.9207765168730124 0.0
1.8247996058955533 1.8424613850286393 0.0
1.5150936473492451 0.8476197481272654 0.0
1.2600667620434429 0.1582766066344951 0.0
3.7152188463159681 2.3628879278576762 0.0
3.9990132187088561 0.1608356006068072 0.0
3.1509637102090879 -0.3036175567473937 0.0
1.5934208000518708 3.1018867083205790 0.0
1.1943483215108099 1.0131086508080089 0.0
4.1108520481796171 2.1486655084704376 0.0
1.3129668788032662 0.7936264419198932 0.0
1.5297211975604299 2.7802587931118792 0.0
3.6671832730026073 2.0924299766008625 0.0
1.3324241623591813 -0.2671832295328150 0.0
3.3364882744843940 0.7999901220904959 0.0
3.1587122051934791 2.4974549188950563 0.0
2.6859168447296957 -1.4075387901473013 0.0
4.0865673397192470 2.6096014945872406 0.0
3.4375860400631608 1.9580798444462435 0.0
3.8166188847072551 0.2226037328361366 0.0
2.0000922980693701 3.0560179288133917 0.0
3.6268025595576106 3.6733106347683000 0.0
2.4430524460275671 4.0337999506862987 0.0
0.8442035849547966 0.8009525888046125 0.0
3.7621037694017110 2.5521388805584713 0.0
1.0693620984466952 0.5652702894698972 0.0
2.8658955232492338 0.2540241316468129 0.0
2.1202908159281448 2.2099883355689673 0.0
3.5950903786358359 2.8407667586110938 0.0
3.1088062777719796 1.0491718056080528 0.0
0.8300182992809575 0.5967939067917871 0.0
4.1511582897344868 2.0502249643774988 0.0
4.1056858775929426 -0.4450287881648377 0.0
3.5570148115342195 1.6332467239107649 0.0
2.2876331658595817 1.5813661315359298 0.0
0.7641786056697784 3.4574472034528352 0.0
0.9881728657432634 0.8496516595681408 0.0
4.2439721151532899 2.0180395213762439 0.0
1.3050321322017802 1.0409407372131521 0.0
1.2192273901139270 0.4742224682119683 0.0
3.1338456440658762 1.8547515319567587 0.0
1.4078969740918947 -0.2950190264036384 0.0
4.2620565268296016 2.4484993311871990 0.0
3.7317925840148685 1.6786879268682038 0.0
3.1605742509522115 2.2123564626373016 0.0
2.8938560464197010 3.0002839524230671 0.0
3.9305881110317404 3.2630552927951086 0.0
0.9570789497672625 0.3001653870581661 0.0
1.7262012044956527 2.4100435268096181 0.0
4.0584790457540594 2.5491226340165527 0.0
3.6904806083011721 -1.4005339605420501 0.0
1.2131528111471723 3.3076046145737363 0.0
1.1610575530769678 0.4749833745936864 0.0
0.9526646588621273 0.3801271545137650 0.0
0.9028045056578057 0.0542427344942778 0.0
4.1150582068448323 2.4665797559995837 0.0
3.8336331103685160 2.8499608544201749 0.0
2.7590708120149290 1.6245899702516802 0.0
1.0306454716435893 1.4842606016728652 0.0
3.9554234949744242 2.6528342524343254 0.0
4.1549828824386745 2.3577251206435332 0.0
4.3003547055139908 2.2086408242842697 0.0
4.0836220829879242 1.9314491520964556 0.0
1.6335579456681006 2.3202404693559511 0.0
3.8026301084329748 -0.1580129657571629 0.0
1.2223310582322839 0.6150135046776012 0.0
3.8612648317438780 1.5373733064286728 0.0
3.9460345432056849 1.4180329325174335 0.0
2.5599000465859341 1.7558668527539174 0.0
3.0826762245938255 1.5158442263897143 0.0
3.0746967200848734 2.0866994472021090 0.0
3.0596706764805597 1.9362857557243331 0.0
3.3513419534669473 1.7654415391688745 0.0
4.0024020480457976 2.2647540702839750 0.0
1.0524764084069551 0.1458669510115295 0.0
2.8650010372510533 2.1266728023382915 0.0
2.4156528361358536 0.8507305763763087 0.0
2.7402231162409185 1.9916441971903907 0.0
2.4297312002894560 -0.0400110825573474 0.0
4.1372424048752450 -0.7514766455676007 0.0
0.9397243201075259 0.9564988585488298 0.0
2.3130010445121014 -1.0760816992128559 0.0
4.0699071641743103 2.5918090844940957 0.0
2.8371428403559196 1.4278219185417558 0.0
3.1229576696101189 1.8558479158664096 0.0
3.4918085060250790 3.9778884963492436 0.0
0.5227184414405230 1.6424056989340208 0.0
3.7473455759769414 2.7522303841739659 0.0
1.5496545091514133 1.8408595831748857 0.0
2.9156506805036360 -0.6978720140970007 0.0
3.7828480451273228 0.8299207847574225 0.0
3.6199192460848071 2.4713684198070278 0.0
0.6330531672297969 0.5007675942559247 0.0
1.2012012260925156 2.2395691547820715 0.0
3.1055819864109298 2.7515376874461519 0.0
1.7180074952102160 2.9227364648514809 0.0
1.0182806176086052 1.8914539763272891 0.0
0.8142678113853477 1.5834741052281449 0.0
1.6637123860840231 3.0813956120750716 0.0
1.4418775581532337 1.1781087660656770 0.0
2.1903259452108590 -1.4148762010062472 0.0
2.1170880683421545 1.5738421595253309 0.0
0.6656300278625397 0.2932893430519049 0.0
0.7629847790880512 0.5776027685391989 0.0
3.9204403731147823 3.4621993442064256 0.0
1.2636870489079830 -0.0778800312829673 0.0
3.3759937035315772 0.8364635396788306 0.0
4.0787659473563913 -0.1641700114331605 0.0
3.8932668913554709 2.3999364807160974 0.0
1.1250736485472608 3.3292141628603313 0.0
2.5193812679179395 0.6924135432932794 0.0
0.5954249949534962 0.3583170120475725 0.0
3.4654047133308268 -0.4778208807256547 0.0
3.6867652170220935 2.6477638229648104 0.0
0.7495818495338384 -0.0150011816750106 0.0
2.5889154040602445 -0.2651629172168168 0.0
2.6552846622740058 1.4262576232031567 0.0
3.6936124918159465 -1.7345669755084783 0.0
0.8001164304432257 0.1058695540086302 0.0
2.4279206935814264 1.5377998813444385 0.0
2.8539605427222279 2.4192115692152583 0.0
2.2159380035591809 1.9598478425358243 0.0
3.9130516733802856 2.5322381990371410 0.0
3.7768802344350969 1.9340921505182869 0.0
2.5008786455454630 1.1018278690513550 0.0
3.7092563682974595 3.7864793669880599 0.0
4.1875159681421659 2.1197063793945707 0.0
0.9351131227780680 0.5962385614285506 0.0
3.1438784358156897 3.2361979040864917 0.0
2.7176656068650789 1.6677093052452030 0.0
4.2214760353990268 2.2035170445187471 0.0
4.1402908232379003 2.0239691858713846 0.0
3.0994491456594693 2.1897458007988404 0.0
3.7370556602370382 2.5805179346707257 0.0
1.2608173501461521 -0.7696825040946813 0.0
3.2976591527459873 0.6472994091918649 0.0
3.9860198196045142 0.1464620756550383 0.0
1.6698217582163231 4.0683861536401071 0.0
2.2519621397726550 1.8656688240123613 0.0
0.7065143030501423 0.6015887920224732 0.0
4.0013131921268652 2.5968195005459012 0.0
4.2892369855249193 2.1524523626864553 0.0
3.9134203561488534 1.1896284583960923 0.0
3.8198233041577780 2.1977224277196430 0.0
3.8227972840621893 2.9128955466703754 0.0
3.4418915481058781 0.0855195353688206 0.0
3.9096548949150951 3.4745543386489852 0.0
3.7912948948879053 2.4553649980289900 0.0
3.7316233788607485 1.9570158097335755 0.0
3.5956463311498110 1.7479296534629409 0.0
2.8254104622107938 1.7885075389022800 0.0
3.3738827908275071 1.3867515937478117 0.0
3.2004452604462403 1.6613222033068913 0.0
3.1533720635105680 2.3320134601090721 0.0
3.2833623857929868 2.5064621531503706 0.0
3.0265964272771559 -0.4953371384126503 0.0
3.6098095347691626 3.8490295644865671 0.0
2.5218004507024268 2.1213726352472961 0.0
2.8950841495478206 1.4016650208827131 0.0
3.9169701832650343 0.5482491476243261 0.0
2.3484204162601028 0.3730419530301839 0.0
3.6643170641518634 1.2325896911345118 0.0
2.7984211139062158 2.6269671306841813 0.0
3.4915980440923020 4.5880959475737759 0.0
3.6354906215123099 2.6413939414539684 0.0
2.2416659024828127 1.3183245352428334 0.0
4.3348252985200144 2.3490025696945929 0.0
4.0139485928131435 2.5772761391429135 0.0
2.8538424934381217 -0.7925578034475425 0.0
4.1163964091546328 1.8158543753605587 0.0
2.5120863048755968 2.0259718410106151 0.0
2.5621247585288174 1.0768099989906357 0.0
3.9356459223179776 2.7208345776742662 0.0
2.7304659294747116 1.3563552137060839 0.0
3.8234403552075342 -0.4188540513070857 0.0
1.9626357446962646 1.4270892985619508 0.0
2.2546872995252558 0.6200254608718223 0.0
2.0981632298527733 0.0446679866441671 0.0
4.1769204709281951 2.4814565706607250 0.0
2.5966522954433824 1.7102546217530166 0.0
2.8108852706321938 2.4540594780511458 0.0
2.9347126630288662 4.7381542478194545 0.0
2.3468906367653974 1.2528713665867295 0.0
2.5252513974223452 2.8797971860314626 0.0
2.1888121944183241 1.6548190423171696 0.0
3.2863567864937848 3.5015116195472795 0.0
1.8292879155934703 1.7708955246839186 0.0
3.9779460105825901 -0.0808581712488577 0.0
3.4925331875058516 2.2565248897179138 0.0
3.8924501086039665 2.5721080067456228 0.0
4.0078037912064426 2.0046622733834627 0.0
4.0346357264676191 2.1025757999336334 0.0
3.6358969848151941 0.4642948871572242 0.0
3.0972989300784302 1.5930380659473002 0.0
1.6452164927706174 1.6762083054960024 0.0
2.2341500144268744 1.0646972640094901 0.0
2.8660323620544554 -1.0473440329192061 0.0
3.7383674171679120 2.5585575626535944 0.0
3.8671584109571713 1.9809319748987042 0.0
1.4301708996967544 0.0788768536939844 0.0
2.0286091573045875 1.0998556348692397 0.0
3.7373397209507599 3.1637195651752128 0.0
1.1260546088728562 0.4483008186263590 0.0
1.8313753650918696 3.2599926036812441 0.0
1.4656800890350929 0.8480854061883744 0.0
3.9778471988079342 1.5817600233922164 0.0
1.8406202718692206 2.2642189174320495 0.0
1.0886011737964167 0.7223113804184701 0.0
2.1245490209814348 2.3888795365109781 0.0
2.7843511153720817 3.3820698939841241 0.0
3.3513640254646750 1.1058603746118791 0.0
3.8018393331270453 0.6600746523702969 0.0
3.5682097493236737 2.2195441108651401 0.0
3.7622223063534399 -1.1233066640372078 0.0
3.2757783018403575 1.7659577997893479 0.0
4.0365842861584831 1.8010558317456467 0.0
1.6437097602615269 -0.3328685486952316 0.0
1.4209804394232075 1.5137384694469356 0.0
3.4450916592753651 2.5832168009995149 0.0
1.2929100111676681 1.8021545005329287 0.0
3.6115770001053953 2.7410310426959907 0.0
3.9196083339092933 1.0922895134317516 0.0
1.4556776877679234 0.7718795960329521 0.0
1.3675612504686745 1.3027597966868116 0.0
3.9144276098797190 -0.9207639641553209 0.0
1.8250029684639189 1.8427576504383099 0.0
1.5034441798046962 0.8456576644719985 0.0
1.2665280402552315 0.1614324867989502 0.0
3.7036316407953187 2.3497862035734283 0.0
3.9961199060526211 0.1630833940202561 0.0
3.1513214897303752 -0.3014975561295059 0.0
1.5934212281133813 3.1018860939176234 0.0
1.1814855253503196 1.0015950561949016 0.0
4.0956519208627844 2.1454338584940618 0.0
1.3290095524240026 0.8029238489920596 0.0
1.5293825981522389 2.7801385568922434 0.0
3.6892257382906051 2.1049208373528363 0.0
1.3322935792518777 -0.2669164283548794 0.0
3.3410775617705228 0.8090764135257221 0.0
3.1581974029289239 2.4883437785482516 0.0
2.6859162249324915 -1.4075428174783085 0.0
4.0961081321022270 2.6134085437832879 0.0
3.4171087394967588 1.9585531498489357 0.0
3.8148593148059518 0.2271696765673596 0.0
2.0000749162694111 3.0560690904167029 0.0
3.6271778621070867 3.6726680823497189 0.0
2.4429985638162681 4.0338192874158407 0.0
0.8546672552258521 0.8092083120739550 0.0
3.7599048745531243 2.5376423836732522 0.0
1.0557958674814905 0.5582777598517779 0.0
2.8689154684932583 0.2590738840068303 0.0
2.1258323109176369 2.2095265791851748 0.0
3.6024868675212995 2.8362256622320299 0.0
3.1018213464556581 1.0519612677383046 0.0
0.8223759892843109 0.5901805348685885 0.0
4.1646181682974737 2.0600421295629348 0.0
4.1051518402160418 -0.4441729901498503 0.0
3.5751940532387612 1.6453807257701769 0.0
2.2793520752063228 1.5818276059895982 0.0
0.7641786056697785 3.4574472034528356 0.0
0.9837217390563169 0.8440916907714691 0.0
4.2389051576127930 2.0267921732861702 0.0
1.3044666336599287 1.0392388511680817 0.0
1.2350556373337442 0.4812340882281743 0.0
3.1110046364207422 1.8414782133666674 0.0
1.4078036662134328 -0.2950400756575953 0.0
4.2602138030639045 2.4489805329846237 0.0
3.7166277466362874 1.6843693743376091 0.0
3.1827085098367585 2.2219990991158451 0.0
2.8936725459172967 2.9966692456095765 0.0
3.9335370540440269 3.2608192117369934 0.0
0.9660858905069158 0.3035256262988770 0.0
1.7262064427702684 2.4101754603470034 0.0
4.0622820921453755 2.5433179364273037 0.0
3.6905171015142533 -1.4006607812482872 0.0
1.2131529808810111 3.3076046208710856 0.0
1.1742036632255823 0.4808954023796571 0.0
0.9393821061490748 0.3742531337771977 0.0
0.9073044399925450 0.0557960553173524 0.0
4.1117802118846649 2.4615788829439063 0.0
3.8397167658204530 2.8388805654474751 0.0
2.7377556915187133 1.6102370908897252 0.0
1.0308520817456697 1.4840274895148506 0.0
3.9648211864024443 2.6435690234134990 0.0
4.1674887081327157 2.3664157599533500 0.0
4.3021135255751366 2.2135885478940125 0.0
4.0708187669464744 1.9403937856659965 0.0
1.6335527408859640 2.3202490960722417 0.0
3.8021143882295680 -0.1549845982157538 0.0
1.2106482578314550 0.6106246817963299 0.0
3.8685083216443150 1.5496081158334327 0.0
3.9464200055020591 1.4312220485287934 0.0
2.5526548203251243 1.7451102353199228 0.0
3.0598489867086567 1.5107518253212180 0.0
3.0622868087558097 2.0707833325121907 0.0
3.0838765800612129 1.9502911395690989 0.0
3.3733524005835513 1.7774045772776528 0.0
3.9855654354050079 2.2591801740239079 0.0
1.0539023379778196 0.1467679367338523 0.0
2.8848114051352294 2.1270463280725971 0.0
2.4313315613973687 0.8596591744751205 0.0
2.7236516256579502 1.9762738920648457 0.0
2.4316768872398784 -0.0367694692174845 0.0
4.1373119521754527 -0.7513101943583371 0.0
0.9399465418406634 0.9566956608126140 0.0
2.3130022407397610 -1.0760794985305662 0.0