# vtk DataFile Version 3.0
LucasCarvalhoTCC Results
ASCII

DATASET POLYDATA
FIELD FieldData 1
TIME 1 1 double
1.2000000000000002

POINTS 531 float
0.02430399999999999 0.16425 0.0
0.5913384 0.481878 0.0
1.30475 0.591832 0.0
0.774126 0.951272 0.0
0.04779564148251592 0.1966194329439859 0.0
0.0726092153537953 0.2279866320496896 0.0
0.09876577335895967 0.2582426022760065 0.0
0.1262817198684718 0.2872673048853742 0.0
0.1551671626852806 0.3149288071400502 0.0
0.1854238368919928 0.3410826624766006 0.0
0.2170424591499632 0.3655716640299072 0.0
0.2499995164635996 0.3882263409476824 0.0
0.2842534387828506 0.4088665906889567 0.0
0.3197403359862048 0.4273050841371062 0.0
0.3563695945475563 0.4433531534921038 0.0
0.3940201673622058 0.4568300511916809 0.0
0.4325386107291805 0.4675762214989666 0.0
0.4717406913237268 0.4754709112408955 0.0
0.5114182513144845 0.480453442081874 0.0
0.5513531678859215 0.4825464217651069 0.0
0.6182637923774223 0.5096055604109244 0.0
0.647389101376845 0.5350126187545199 0.0
0.6784752958296183 0.5579802184492302 0.0
0.7112421079139344 0.5784810076698811 0.0
0.7454110434104482 0.5965507527581431 0.0
0.7807301979183381 0.6122562812860965 0.0
0.8169827939052532 0.6256694297140926 0.0
0.853985522124928 0.6368498290413532 0.0
0.8915818964261243 0.6458353363890481 0.0
0.9296339776508085 0.6526379336565091 0.0
0.9680139759519513 0.6572432424840469 0.0
1.006596418266983 0.659612648128084 0.0
1.045251165872634 0.6596877658251245 0.0
1.083837680945672 0.657397570658483 0.0
1.122201320191055 0.6526688455666412 0.0
1.160173053543044 0.6454405726452737 0.0
1.197574286953346 0.6356824063786186 0.0
1.23422961949795 0.6234159704281613 0.0
1.26998758503999 0.6087366500005643 0.0
1.285086682927543 0.6256533177085738 0.0
1.263669745906668 0.6583917156018083 0.0
1.240480125919214 0.6898988493917133 0.0
1.215532715641304 0.7200329197235763 0.0
1.188869833862339 0.7486599839005789 0.0
1.160556835593143 0.7756559317113654 0.0
1.130680194163798 0.8009104211039757 0.0
1.099347083827048 0.8243335727704395 0.0
1.066684425336412 0.8458643604021228 0.0
1.03283497048792 0.8654772531176074 0.0
0.9979492572630678 0.8831824104874066 0.0
0.9621749986495024 0.8990166556695112 0.0
0.9256475378616493 0.9130272060048579 0.0
0.8884846540507749 0.9252538945090274 0.0
0.8507866567183312 0.935715378288671 0.0
0.8126405010322847 0.9444016349017643 0.0
0.7365055179612304 0.9396161853607135 0.0
0.699310855231089 0.9266666891603924 0.0
0.6626179171945521 0.9123577070090924 0.0
0.6264901449910028 0.8966765244755546 0.0
0.5909789825447118 0.8796450886595113 0.0
0.556124897941028 0.8613059841617771 0.0
0.5219601957009091 0.8417124664434518 0.0
0.4885110616878257 0.8209207172498462 0.0
0.4558007060429968 0.7989848675704875 0.0
0.4238520247653796 0.775953675763176 0.0
0.3926900138417566 0.7518687036338616 0.0
0.3623437622133722 0.7267636709390595 0.0
0.3328479550295906 0.7006647540504483 0.0
0.3042438201183181 0.6735915983461908 0.0
0.2765795358619001 0.6455588748284606 0.0
0.2499101143933102 0.6165781952942546 0.0
0.2242967982692083 0.5866601984136335 0.0
0.1998060807431611 0.5558166834807132 0.0
0.1765083808984156 0.5240625786010467 0.0
0.154476512720734 0.491417660368959 0.0
0.133784033184808 0.457907916333494 0.0
0.114503564227142 0.4235664945146766 0.0
0.09670517293008124 0.3884342245925089 0.0
0.0804548910754031 0.3525597611689231 0.0
0.06581337946329963 0.3159993090744527 0.0
0.05283482490365372 0.2788161107032479 0.0
0.0415660226296666 0.2410796291505872 0.0
0.03204569406625649 0.2028646095712164 0.0
0.5272009874003867 0.6419624505772817 0.0
0.7421848286576707 0.7716726266421574 0.0
0.8789503364783713 0.7829234141383637 0.0
0.6149390992905563 0.7449438030688011 0.0
0.4064556042659638 0.5942834991165423 0.0
0.9875021850865396 0.7666507358101158 0.0
0.3188065960661005 0.539594034984892 0.0
0.61365100263957 0.6399487878797632 0.0
0.8049090660915541 0.8464379870891131 0.0
0.7099820328572021 0.6828840522539854 0.0
0.5239467234991928 0.7406922291088611 0.0
0.8154056325591208 0.7211774015928547 0.0
0.6676178829014909 0.8152713180209475 0.0
0.4416080359619968 0.674360953773491 0.0
0.489443615375965 0.5654986742123573 0.0
1.076665773779852 0.7387182918829318 0.0
0.250390543112057 0.4877450112830265 0.0
0.5736819937919005 0.5790366884881447 0.0
0.7263706755366466 0.8615301097563091 0.0
0.940143307772686 0.8233944909985552 0.0
0.927065543677544 0.7236459161626674 0.0
0.8744389806957806 0.8609114380468947 0.0
0.336888362650554 0.6081958070931937 0.0
0.2030757334857187 0.4383942902513459 0.0
0.3861483329720647 0.5255533415902591 0.0
0.5621001921466506 0.7923778419149285 0.0
0.6822897332295245 0.7428043323059399 0.0
0.5764061681675353 0.6881266532454204 0.0
1.129195449682892 0.7163224153578123 0.0
0.8157794419559141 0.7831214907157077 0.0
0.3806644703311284 0.6554275822782399 0.0
0.7695737871052837 0.669593045341503 0.0
0.4699375460410929 0.6217118815516158 0.0
0.6830867370872363 0.630350317562806 0.0
1.040416897214502 0.7929392348941093 0.0
0.4604428393605979 0.7321209818568342 0.0
0.8729552856459739 0.7015083313474691 0.0
1.017010765275644 0.7166925631396708 0.0
0.6458785458483771 0.6946878992565794 0.0
0.7733575582969163 0.8941098392103913 0.0
0.4457537579383052 0.5273353624588528 0.0
0.163830623786951 0.3903175742448083 0.0
0.6095823984734953 0.8256600013628639 0.0
0.2618074352614998 0.5435604438425528 0.0
0.6287880420949764 0.5875838132975476 0.0
0.3100402147222924 0.4835410260423071 0.0
0.5422177893302824 0.5343158927797464 0.0
0.9964262112680041 0.8213447667248638 0.0
0.4971609598823845 0.6906859160718212 0.0
0.5740517260168769 0.633982031239429 0.0
0.7423299505107201 0.7218768583704394 0.0
0.767147744476665 0.819658485932403 0.0
0.9427329070375209 0.7774595780066723 0.0
0.8375285793481674 0.8869398470561132 0.0
0.2879426409425497 0.5872676364411625 0.0
0.6797562629663748 0.8647676397847667 0.0
1.171674168522591 0.6949964056806914 0.0
0.5261010885606964 0.6055079299963303 0.0
0.7081534744446967 0.8078672678314597 0.0
0.9681672688626206 0.705385299758921 0.0
0.7364069054947873 0.6432919177737106 0.0
0.363826821075015 0.5678764295233764 0.0
0.826170216989844 0.6605791783255148 0.0
0.1284439337099834 0.3602715082199688 0.0
0.518140828090112 0.783905985497134 0.0
0.8452908336054504 0.8167586152211004 0.0
0.2015204468558833 0.492088055688788 0.0
0.4005883523205732 0.7121294304856254 0.0
0.3551392316798573 0.4864133323669936 0.0
0.2501727034998737 0.4443035857235296 0.0
0.857938396055507 0.7390317828783199 0.0
0.9245301815433076 0.8668102132501951 0.0
0.5702050292970205 0.7323438487067678 0.0
1.111607633075016 0.759318252473435 0.0
0.6317193755596126 0.7853891653733797 0.0
0.7921381265818805 0.7497379312370454 0.0
1.088942426366261 0.7015435214091311 0.0
0.5818207607488639 0.5352340257544296 0.0
0.4203532416309484 0.6369649631143086 0.0
0.4854818714173937 0.5131439318707094 0.0
0.4475429831528036 0.5690430472086269 0.0
0.8968753306595262 0.8225547516037004 0.0
0.6339557898063448 0.8543470494763272 0.0
0.3416564411796998 0.6516449771136894 0.0
1.082970576264455 0.7856036465430698 0.0
0.2255204648032354 0.5229464838393291 0.0
0.7335043541589261 0.9012744999286941 0.0
0.9097052989734319 0.6921177492721042 0.0
0.5363428275528405 0.6992389299864537 0.0
0.9657777897300287 0.8588269742066746 0.0
1.025947476617909 0.7556651119714124 0.0
0.1090829970454354 0.3226173037985549 0.0
0.4836644525169279 0.7663103281018557 0.0
0.6910856326166581 0.777867529208468 0.0
0.6694391877434097 0.5946719355048008 0.0
0.2954883530575775 0.4501042133334518 0.0
0.6746032498128595 0.6643957640016517 0.0
1.054636636429828 0.6974583960183274 0.0
0.8939255235163368 0.7470597914537064 0.0
0.3749741568555516 0.6190655430398917 0.0
1.204101441114554 0.6801433534918062 0.0
0.6130053345415899 0.6785345531932346 0.0
0.7679719108452487 0.8562682874000032 0.0
0.9710820219997449 0.8008372590855476 0.0
0.1608022352294362 0.4242591696906621 0.0
0.2865399820604418 0.5141369963640697 0.0
0.1962258775846918 0.4008383427744516 0.0
0.6210920174972845 0.5516143721732873 0.0
0.4843009180093644 0.6583977883024127 0.0
0.5695029195102991 0.8267073580550881 0.0
0.9562891163300477 0.7436031251145003 0.0
0.4174190173896447 0.5044019081507806 0.0
0.410860431802698 0.5535781448116232 0.0
0.8709320861791604 0.9002602580953145 0.0
0.427354757192076 0.7399041791280969 0.0
0.7107884943357746 0.7172753954970394 0.0
1.030382288537246 0.8267335242583146 0.0
0.7737440530215844 0.7115751739064536 0.0
0.8042035044852396 0.9123190309183211 0.0
0.0480920891272324 0.2181807374272496 0.0
0.3695079235280397 0.6886893012630373 0.0
0.773516204411121 0.7830673827025234 0.0
0.302776671534508 0.6210168062901616 0.0
0.7150573728414059 0.6149413270404035 0.0
0.5863276441271683 0.769748656022605 0.0
1.143752049005473 0.6780480059671409 0.0
0.6477132714923303 0.7318578097016951 0.0
0.8380052680878572 0.8531154611905379 0.0
0.5966224054445893 0.6051703156405629 0.0
0.3207240819522855 0.5772784374275386 0.0
0.3520131451607586 0.5263918604440553 0.0
0.8573528491808811 0.6709738722470224 0.0
0.1797236573643203 0.460867988842514 0.0
0.5540828191547277 0.6661566975721369 0.0
1.158039843450239 0.7357536542887966 0.0
0.08638006908591334 0.286237566592474 0.0
0.790861820497242 0.6466611559014377 0.0
0.5362079962218838 0.8121454698907893 0.0
0.9405172130232713 0.6862060282668497 0.0
0.6039359324506977 0.711463595189489 0.0
0.4440093493753478 0.6096873538428137 0.0
0.5500746279087338 0.7620941994763282 0.0
0.2578504496023611 0.5739900063885278 0.0
0.502526452350101 0.6209820553182169 0.0
0.6799833858912959 0.7033681517905728 0.0
0.7183487148906835 0.7518430858176317 0.0
0.8006701240044786 0.8118713608014352 0.0
0.1304684854221093 0.3934039266496895 0.0
1.00789495394612 0.7937868725857601 0.0
0.696960396255943 0.893370944718147 0.0
0.8258315165019564 0.7538365084989149 0.0
0.8462950259502577 0.775614153529746 0.0
0.4082018839227037 0.6749460331934272 0.0
0.7025889307788081 0.8378536687159448 0.0
0.4666676520109517 0.6984557076050861 0.0
[...]
POINT_DATA 531

VECTORS Velocity float
0.0000000000000000 1.0000000000000000 0.0
0.0000000000000000 1.0000000000000000 0.0
2.6384935211296345 -0.9587292167626495 0.0
1.9432195459849431 1.0470350802306803 0.0
0.0000000000000000 1.0000000000000000 0.0
0.0000000000000000 1.0000000000000000 0.0
0.0000000000000000 1.0000000000000000 0.0
0.0000000000000000 1.0000000000000000 0.0
0.0000000000000000 1.0000000000000000 0.0
0.0000000000000000 1.0000000000000000 0.0
0.0000000000000000 1.0000000000000000 0.0
0.0000000000000000 1.0000000000000000 0.0
0.0000000000000000 1.0000000000000000 0.0
0.0000000000000000 1.0000000000000000 0.0
0.0000000000000000 1.0000000000000000 0.0
0.0000000000000000 1.0000000000000000 0.0
0.0000000000000000 1.0000000000000000 0.0
0.0000000000000000 1.0000000000000000 0.0
0.0000000000000000 1.0000000000000000 0.0
0.0000000000000000 1.0000000000000000 0.0
0.0000000000000000 0.0000000000000000 0.0
0.0000000000000000 0.0000000000000000 0.0
0.0000000000000000 0.0000000000000000 0.0
0.0000000000000000 0.0000000000000000 0.0
0.0000000000000000 0.0000000000000000 0.0
0.0000000000000000 0.0000000000000000 0.0
0.0000000000000000 0.0000000000000000 0.0
0.0000000000000000 0.0000000000000000 0.0
0.0000000000000000 0.0000000000000000 0.0
0.0000000000000000 0.0000000000000000 0.0
0.0000000000000000 0.0000000000000000 0.0
0.0000000000000000 0.0000000000000000 0.0
0.0000000000000000 0.0000000000000000 0.0
0.0000000000000000 0.0000000000000000 0.0
0.0000000000000000 0.0000000000000000 0.0
0.0000000000000000 0.0000000000000000 0.0
0.0000000000000000 0.0000000000000000 0.0
0.0000000000000000 0.0000000000000000 0.0
0.0000000000000000 0.0000000000000000 0.0
2.6787864019916627 -1.7960637028338613 0.0
3.6718823680091628 -2.3088741602568894 0.0
3.7428647550518073 -2.2177711754458649 0.0
3.7099106546162073 -1.8960924279332061 0.0
3.6420363714728863 -1.5582193236981754 0.0
3.6119001191625877 -1.1869132781305185 0.0
3.5940359446698458 -0.9377473465138336 0.0
3.5715177535237723 -0.6936621675949208 0.0
3.4616460064273560 -0.3839512770878375 0.0
3.4350538722777237 -0.1588934787066755 0.0
3.3661157476809449 0.0646223520758336 0.0
3.2484088838388612 0.2790345610491362 0.0
3.1732806668723788 0.4558576463388713 0.0
3.0062010235932579 0.6237925643659622 0.0
2.6213103435646454 1.0271878627944075 0.0
2.0166203820320718 0.9168087891972557 0.0
0.0000000000000000 0.0000000000000000 0.0
0.0000000000000000 0.0000000000000000 0.0
0.0000000000000000 0.0000000000000000 0.0
0.0000000000000000 0.0000000000000000 0.0
0.0000000000000000 0.0000000000000000 0.0
0.0000000000000000 0.0000000000000000 0.0
0.0000000000000000 0.0000000000000000 0.0
0.0000000000000000 0.0000000000000000 0.0
0.0000000000000000 0.0000000000000000 0.0
0.0000000000000000 0.0000000000000000 0.0
0.0000000000000000 0.0000000000000000 0.0
0.0000000000000000 0.0000000000000000 0.0
0.0000000000000000 0.0000000000000000 0.0
0.0000000000000000 0.0000000000000000 0.0
0.0000000000000000 0.0000000000000000 0.0
0.0000000000000000 0.0000000000000000 0.0
0.0000000000000000 0.0000000000000000 0.0
0.0000000000000000 0.0000000000000000 0.0
0.0000000000000000 0.0000000000000000 0.0
0.0000000000000000 0.0000000000000000 0.0
0.0000000000000000 0.0000000000000000 0.0
0.0000000000000000 0.0000000000000000 0.0
0.0000000000000000 0.0000000000000000 0.0
0.0000000000000000 0.0000000000000000 0.0
0.0000000000000000 0.0000000000000000 0.0
0.0000000000000000 0.0000000000000000 0.0
0.0000000000000000 0.0000000000000000 0.0
0.0000000000000000 0.0000000000000000 0.0
3.4420525949027687 2.3531852331749383 0.0
3.7782788974891703 1.7096702369817105 0.0
3.7042631724646671 0.9703152633428416 0.0
3.6169896704676496 2.0768337128504490 0.0
3.5849260253852910 2.8257564202996535 0.0
3.6514820749992447 0.1835562363191008 0.0
3.8450125703803457 3.4727291929380946 0.0
3.4722293645506426 2.3392463800709788 0.0
3.4717513459178675 1.5282577309751966 0.0
3.5814179219140643 1.7236929163744603 0.0
3.0927633941567727 2.0276744247312055 0.0
3.6175389922934231 1.2860032429527255 0.0
3.4276392264451476 1.7358293650056020 0.0
3.1759564934197768 2.4756101745777577 0.0
3.2487567386965845 2.3147675976329629 0.0
3.3279988485543841 -0.3699541267999819 0.0
3.5740276579552401 3.8985917120171005 0.0
2.7113933807629587 2.1876579448974383 0.0
3.2625296538990454 1.4640771289897812 0.0
3.5403783311577324 0.5045378449492718 0.0
2.9855087606153017 0.4509342500369453 0.0
3.3259649331887231 0.9794556357485664 0.0
2.8578381526056478 2.7600561948013245 0.0
3.4868676124746538 4.5939399857518675 0.0
3.5487454533560494 2.5721754556345635 0.0
2.6901599816544879 1.5887848388577983 0.0
3.8191925200064052 1.9574740140308200 0.0
3.5438210982728444 2.3161176329181310 0.0
3.0800237829965185 -0.7430376457450983 0.0
3.6963936076493331 1.4067213531301799 0.0
2.6245206907160701 2.2644886547192145 0.0
2.9061248943629443 1.1284843943159255 0.0
3.4510555952677091 2.4942753284377521 0.0
2.9497661634496501 1.5347936209963211 0.0
3.6357518031083336 -0.1804194335832160 0.0
2.3631602273843351 1.6921550161760288 0.0
2.8518602466124765 0.7309414367305157 0.0
2.6587411288736313 0.1106417727387048 0.0
3.6865544485240411 2.1744242321105842 0.0
2.8885272081901761 1.7415058728709674 0.0
2.8626299213898143 2.3564260186960677 0.0
2.9359470244980992 4.7376978233424127 0.0
2.7696953374545878 1.4658303319786494 0.0
2.5494765318742854 2.9770863832319940 0.0
2.4631880870165292 1.8748998398845478 0.0
3.2042088005051101 3.4644011657657119 0.0
2.1285442900071918 1.8257554643403939 0.0
3.5499947339457796 0.0993941270540371 0.0
3.4393797003219215 2.3022703296232105 0.0
3.4119452831176593 2.3411898364137405 0.0
3.7911810814189373 1.6849826123682832 0.0
3.6819842309822444 1.6795332036613293 0.0
3.6610963657896041 0.4702431582752056 0.0
3.0197039594077468 1.3262706845698464 0.0
1.7293186076600127 1.7579987950779232 0.0
2.6914340277710291 1.2864530182462055 0.0
2.9961087889888156 -0.9482587197194311 0.0
3.3650092745067446 2.3506066583395833 0.0
3.7081596992314059 1.8422274021025251 0.0
1.9478896326510606 0.1489147640102947 0.0
2.2581622973149318 1.1313472964488580 0.0
3.6463204887628780 3.1367255990495786 0.0
1.4567568719673984 0.5393664856556766 0.0
1.8315867221295257 3.2597570962331508 0.0
1.7751494849294021 1.0627021652911228 0.0
3.5493684082038777 1.2096164897541313 0.0
1.8386698050322698 2.2861903843314080 0.0
1.2952805915236474 0.9151410675378142 0.0
2.0730571817098968 2.3688416626486926 0.0
2.7547120155756950 3.3852614276484583 0.0
3.6185182930730826 1.0665032656726288 0.0
3.3364595494046947 0.6075609569101801 0.0
3.4787150799029609 2.2369939330063553 0.0
3.6489494430723988 -0.8671624960671106 0.0
3.4569175366569480 1.8273482705577506 0.0
3.7874718498027429 1.4532026943117233 0.0
1.9585502749989308 -0.3265971971982238 0.0
1.6749770378376359 1.6171419617968459 0.0
3.2995048718898126 2.6714623898184544 0.0
1.4432137202274251 1.7830184131464926 0.0
3.4467000182973977 2.5162210204533677 0.0
3.5202304278979906 0.8513818466542685 0.0
1.7816593042781468 0.9423476080034582 0.0
1.4599156347115689 1.4454359891418342 0.0
3.6860975794552040 -0.5402940047769111 0.0
1.8291761561178819 1.8966070272739677 0.0
1.7864676737909093 0.9406358398732496 0.0
1.7481698766861584 0.2048065946195345 0.0
3.5237601522845776 2.3127683300466266 0.0
3.4184454107881876 0.2960335674239132 0.0
3.4549181250905123 -0.1301148809046246 0.0
1.5934067635752975 3.1019175050536436 0.0
1.4690738399374830 1.2125534906780984 0.0
3.7869423410054539 1.8893518329878898 0.0
1.5300728554602845 0.9459860709523387 0.0
1.4993334211630958 2.7698409406108020 0.0
3.5605674259445781 2.0283869961378884 0.0
1.6817794201185117 -0.2553163369879834 0.0
3.6093872827579885 0.8077427202560048 0.0
3.1480836936260381 2.6438937818706467 0.0
2.7160542070301421 -1.3436708907230990 0.0
3.5780304351420025 2.2622554904165098 0.0
3.4629755925304520 1.7736046530599683 0.0
3.6194439546589217 0.2760023210341038 0.0
1.9998188749252401 3.0553001425906703 0.0
3.5549015137128332 3.6924106208059864 0.0
2.4437478610119299 4.0338978682265347 0.0
1.0163839737701255 0.9617109052206784 0.0
3.4216427489535399 2.4330092034929089 0.0
1.3486130187517436 0.7115502601199943 0.0
3.3716125801068442 0.3316200365179552 0.0
2.1265311144763652 2.1472725452559547 0.0
3.4899803941905576 2.6886526949256750 0.0
2.9565862343639471 0.9322174578360229 0.0
1.0474023873397473 0.7763618240180850 0.0
3.8325377970065033 1.8047856979171872 0.0
3.5531446180829338 -0.1297555573013194 0.0
3.6473539564719930 1.4740644990507674 0.0
2.4479157984021858 1.4935169762381859 0.0
0.7641784682195160 3.4574474069755006 0.0
1.1321412977582614 1.0142326293499273 0.0
3.7284321569420196 1.5629604489426234 0.0
1.3728120283957583 1.1239677754108777 0.0
1.4026274626506205 0.5516321070418985 0.0
3.3414184775880140 1.9805320631611729 0.0
1.5987295200618625 -0.2934441278330218 0.0
3.7350694584698383 2.0975400587954023 0.0
3.4212972290179486 1.3227498166303444 0.0
3.1564228543528725 2.2612831195987728 0.0
2.9576855668037254 3.0669842944882313 0.0
3.8067998140206032 3.1983591581084720 0.0
1.3099335677029853 0.3835774492530364 0.0
1.7233231492012320 2.4139754764574035 0.0
3.5041013336541313 2.3245090164593805 0.0
3.6097978537629487 -1.1581240485240163 0.0
1.2131330346976055 3.3076130993022095 0.0
1.4500865744783220 0.5778403034516471 0.0
1.2123268967720513 0.4866900737249543 0.0
1.2821054418441826 0.0713665565998808 0.0
3.6283464695290828 2.1935121366004902 0.0
3.4855630150387946 2.6545187770551890 0.0
3.0406252308997628 1.8550508527288625 0.0
1.0824762230293985 1.5673714047574907 0.0
3.4421369241703088 2.3940863641442887 0.0
3.7580336711011033 2.0665180142813533 0.0
3.8199895954226712 1.8032128840102373 0.0
3.6171943022557946 1.4712191187411390 0.0
1.6341251301848221 2.3192920791474090 0.0
3.6516062735497639 0.0438967050731686 0.0
1.5066084645907571 0.7114538009001081 0.0
3.7335287872985718 1.3157381592670603 0.0
3.6911641267533097 1.1853160088350967 0.0
2.7099311450434418 2.0378363064908473 0.0
3.3118276203871084 1.5345142874706130 0.0
3.1545454195902720 2.2202789853736706 0.0
3.1901259947929401 2.0430030660541800 0.0
3.5056902031697073 1.6363771760654922 0.0
3.7589964643814784 2.0021383224975198 0.0
1.4357659778485210 0.2123087046534277 0.0
2.9871876689927093 2.0816076696732408 0.0
2.9878451103049670 0.9830834775308105 0.0
2.9921832622178490 2.1130494058511577 0.0
3.0249178687049070 0.0437069939700087 0.0
3.6239500651871377 -0.3325758108121308 0.0
0.9682304823913197 1.0192403368013381 0.0
2.3249711877418711 -1.0650361219229647 0.0
3.5124133246941223 2.3129517858096209 0.0
3.0368714716816343 1.5843111137682113 0.0
3.1332363088204374 1.5816293841040623 0.0
3.4676789716280290 4.0023028601708033 0.0
0.6777441484178177 1.6539637199954056 0.0
3.4552112859434869 2.4543082243034440 0.0
1.5293345798646805 1.8283603422937009 0.0
3.1439246557686351 -0.5679649786611561 0.0
3.6653201936361266 0.7425091044162919 0.0
3.3409020885148202 2.3069257286426570 0.0
0.8218993192322758 0.6532386762667746 0.0
1.1790588551185397 2.2277870498815999 0.0
3.1362405468850247 2.8368841152832083 0.0
1.7129285001294885 2.9256712605324680 0.0
1.0811303284874165 1.8791893865056006 0.0
1.0094837414587223 1.5945667919860282 0.0
1.6647240739300930 3.0814621816707319 0.0
1.6403341770614326 1.2442216966031145 0.0
2.1900866269838808 -1.4151610306759319 0.0
2.4179166969890771 1.8823699551260327 0.0
0.8719845752161718 0.3739402886629729 0.0
0.9245433677172687 0.6994549407216416 0.0
3.8034865616081728 3.4210775431902212 0.0
1.4772736559923385 -0.0671690867379670 0.0
3.0893804432601040 0.7517839849525132 0.0
3.4549536750284715 0.0838014102843999 0.0
3.6140734959776140 2.2478031612703249 0.0
1.1250738233515341 3.3292127089440049 0.0
3.1606699367596041 0.7483352942685548 0.0
0.7661778131011411 0.4694088250981185 0.0
3.5940177304218417 -0.2136486526453314 0.0
3.4043986657143885 2.5845186257923394 0.0
1.0384072539416593 -0.0069186122962763 0.0
3.0548476686449662 -0.1554404302242296 0.0
3.0778718843134412 1.6877637953560172 0.0
3.6674542911273633 -1.5439475725327090 0.0
1.1211654263347293 0.1337921849212061 0.0
2.8894119551474233 1.7253607797955077 0.0
2.9859729061850682 2.2664940716939119 0.0
2.4983515719194718 1.9028161532576653 0.0
3.4872552356449238 2.3494444472454177 0.0
3.7164589757825381 1.7603086575361151 0.0
2.9600965994623083 1.1637831120994384 0.0
3.6290534155042296 3.7751413027034402 0.0
3.7523121394867274 1.7333556281742462 0.0
1.1562348743722766 0.7065665385299149 0.0
3.1290429529152601 3.3188762900125086 0.0
3.0381483627778372 1.6959290766937576 0.0
3.7722225590131040 1.8255546274647951 0.0
3.8031808223130947 1.6381102131991434 0.0
3.1402739823693020 2.3069278207789705 0.0
3.4287042691391378 2.3587033996935971 0.0
1.3453881435819675 -0.7605431013925834 0.0
3.6059894038559626 0.6564909831797466 0.0
3.5142864340067068 0.2683963795206171 0.0
1.6704100429836046 4.0682813782218119 0.0
2.5314418075190721 2.0771139502757219 0.0
0.8397923746632499 0.6236976535897214 0.0
3.4677864301728558 2.3403243828915197 0.0
3.7669838788370362 1.7195057605030630 0.0
3.6985234019140885 1.0074518509245947 0.0
3.5621543933580280 2.0426374817402522 0.0
3.6007393037294784 2.7912463494624715 0.0
3.6537237408381547 0.2186091385007102 0.0
3.8573378570790018 3.4485673165036599 0.0
3.5401568088246669 2.3825377350112000 0.0
3.3882093832867120 1.5484202799117335 0.0
3.6690867057516083 1.7750582576375804 0.0
3.0098833829792637 1.9638269972819093 0.0
3.6999736718546674 1.3222344072446524 0.0
3.3325288135543665 1.6930154596655134 0.0
3.1199811937017619 2.4117968767578395 0.0
3.3323797768175218 2.3155303631826150 0.0
3.3327000667517646 -0.3546765592285487 0.0
3.5801219600150973 3.8843473111260600 0.0
2.8006768776915174 2.2243095234503483 0.0
3.1613328011512012 1.4383607435807457 0.0
3.4878451479320365 0.5400346477899882 0.0
3.0519320155455425 0.4766509394191170 0.0
3.2498844585172479 1.0087045291774634 0.0
2.8307097590688284 2.7111805071363868 0.0
3.4895556624121840 4.5911341161195818 0.0
3.6026425179691284 2.5699087295232426 0.0
2.5946693113285404 1.5325211365250520 0.0
3.8202351399773207 1.9625466217134928 0.0
3.5353760944961161 2.3007485713289304 0.0
3.0812875387063414 -0.7403438672897903 0.0
3.6868167338303732 1.4362705176317236 0.0
2.5761510322693506 2.2026710597849561 0.0
3.0062994769661615 1.1692333282086247 0.0
3.4703733984045400 2.4668943812984119 0.0
3.0542891019225311 1.5916788891825351 0.0
3.6154766504041502 -0.1531812009449187 0.0
2.2823917323955381 1.6335128456889760 0.0
2.9424970007636171 0.7572261083344439 0.0
2.6903448035234101 0.1265836331233764 0.0
3.7218407012861845 2.1951802191263590 0.0
2.7992324449305497 1.7352840155095031 0.0
2.9408760992888605 2.3625629128017613 0.0
2.9363719698403252 4.7372899558866948 0.0
2.6735151832843886 1.4170370881950427 0.0
2.5413518779274535 2.9532360202111771 0.0
2.5558331537319026 1.9405251801481389 0.0
3.2302698467892466 3.4695013583564176 0.0
2.2165315445917408 1.8416166624683339 0.0
3.5073070043113108 0.1315232834689694 0.0
3.3806374507770824 2.2483329889293246 0.0
3.4647763152204925 2.3550507701662839 0.0
3.8503259643654433 1.7134847319416671 0.0
3.6166607369921446 1.6861369012973082 0.0
3.6505638071592155 0.5050637431439259 0.0
2.9503771157208361 1.3400093767017618 0.0
1.7095232877087621 1.7318055088886948 0.0
2.5954083574666229 1.2442845515960841 0.0
2.9965811715416439 -0.9460908959707836 0.0
3.4225095074581602 2.3575855124608407 0.0
3.6354790697809856 1.8158481324069764 0.0
1.9991567241916919 0.1674496118262175 0.0
2.3478173839828322 1.1733360520239564 0.0
3.6596132205614551 3.1064644877101166 0.0
1.5275591134566613 0.5645277419862662 0.0
1.8316710753807102 3.2596383445028811 0.0
1.7043114882211758 1.0161469066953477 0.0
3.4957369153139477 1.2433104127307284 0.0
1.8364167190907659 2.2780424180226562 0.0
1.2462320380495824 0.8742842282563377 0.0
2.1106311520167234 2.3725341641579818 0.0
2.7659984356439069 3.3843397098716843 0.0
3.6791661427900841 1.1027890446705471 0.0
3.2813049183515002 0.6331421703876902 0.0
3.4207899764737766 2.1890585922086490 0.0
3.6455950475047123 -0.8606040734798938 0.0
3.3676772743535319 1.7832005017565746 0.0
3.8246238911091028 1.4804508090890658 0.0
1.9656375840483229 -0.3229634027698302 0.0
1.7458008176487096 1.6488451227705547 0.0
3.2733963518341764 2.6159151603129973 0.0
1.5085873748171899 1.7906195823219302 0.0
3.5074979942810494 2.5018354539765033 0.0
3.4621699315506596 0.8919965881626776 0.0
1.7057703559908890 0.9043975906481259 0.0
1.4264234645293843 1.4035774192051986 0.0
3.6779667316077860 -0.5251281115493345 0.0
1.8243245053116071 1.8828048846057819 0.0
1.7209828714078601 0.9266426441893597 0.0
1.8124747310563480 0.2210121305300231 0.0
3.4757247287168145 2.2705749853105686 0.0
3.3781868838782634 0.3182801847977182 0.0
3.4621554687297182 -0.0984169507132240 0.0
1.5933875241535793 3.1019421751220038 0.0
1.4037337896124644 1.1596852844461019 0.0
3.7352957494334205 1.8727819458636785 0.0
1.6069700134680047 0.9920793870039598 0.0
1.5152131986321487 2.7751635752906934 0.0
3.6447577993780205 2.0755600317709453 0.0
1.6983924899479070 -0.2479403007968926 0.0
3.6462673282310822 0.8441061199483965 0.0
3.1234923159753958 2.5836891800510751 0.0
2.7160824946355810 -1.3434734309502632 0.0
3.6095930431825249 2.2762724479731444 0.0
3.3676147323319294 1.7683199432689862 0.0
3.5874800139064527 0.3083259416013807 0.0
2.0002219254202660 3.0537349697311806 0.0
3.5659791944005685 3.6776103492949139 0.0
2.4453191003460790 4.0335836101823386 0.0
1.0702906946974784 1.0076572020398715 0.0
3.4008327365555497 2.3904999348171452 0.0
1.2828145100764459 0.6774484530029145 0.0
3.4113725992637902 0.3614372709829462 0.0
2.1829588015530805 2.1542046095934255 0.0
3.5488424428940681 2.6764526619248987 0.0
2.9047796841089757 0.9518167548157159 0.0
0.9991439942764225 0.7389183830506763 0.0
3.8835191488171428 1.8360211975004728 0.0
3.5261483239986049 -0.1103120393460240 0.0
3.7283715509293485 1.5107194063845744 0.0
2.3932686119859796 1.4964388135538080 0.0
0.7641784682195161 3.4574474069755010 0.0
1.0921360137448128 0.9742074074859963 0.0
3.7117936899244688 1.5802002000798161 0.0
1.3500427588476815 1.0952337417552673 0.0
1.4783574948975808 0.5855241543503983 0.0
3.2525146782454901 1.9278514646245493 0.0
1.6013571087024780 -0.2931226884301544 0.0
3.7305499048934561 2.0976917847134104 0.0
3.3328872933422877 1.3503312159202900 0.0
3.2433441106262459 2.3089443843518649 0.0
2.9375825793249213 3.0265065588053153 0.0
3.8492770225289084 3.1934567967172733 0.0
1.3754149392548105 0.4024056895459669 0.0
1.7227571334067808 2.4102495588412900 0.0
3.5107031004911056 2.3125349683604299 0.0
3.6087827523056277 -1.1548965177109340 0.0
1.2131191065857774 3.3076164259958465 0.0
1.5218486018882504 0.6075582836221027 0.0
1.1475816066348230 0.4574817199457644 0.0
1.3370942682206226 0.0807267779634389 0.0
3.6180924457068087 2.1768624444625910 0.0
3.5075209881136593 2.6194907179087945 0.0
2.9522522426364377 1.7951581431441102 0.0
1.0693891559701745 1.5445171658274670 0.0
3.4701206654751982 2.3750352666241836 0.0
3.8033730465721796 2.0942707767747892 0.0
3.8282680087378789 1.8138082389554462 0.0
3.5654639174000420 1.4916199005138919 0.0
1.6342872279097389 2.3189211772521445 0.0
3.6269455783302496 0.0808414105027754 0.0
1.4428158564646290 0.6872381823628686 0.0
3.7679652485713695 1.3476089782377654 0.0
3.6927599208824033 1.2234863588514571 0.0
2.6514257381708304 1.9749688451579661 0.0
3.2146187439380665 1.5038120199137208 0.0
3.0883038459989174 2.1595641982198788 0.0
3.2903398798613614 2.1033670603290271 0.0
3.6015854604782898 1.6764842737620238 0.0
3.7009369287737304 1.9814275148257547 0.0
1.4737232996690701 0.2228482422711456 0.0
3.0791106335039027 2.0953147884565220 0.0
3.0867530428405270 1.0215840411095587 0.0
2.9119626114009312 2.0559700535474970 0.0
3.0641370805963684 0.0692959290903774 0.0
3.6085125134157625 -0.3188753235031878 0.0
0.9597263431599180 1.0046488434114340 0.0
2.3249253824229221 -1.0651284591653134 0.0
3.5491254930304081 2.3259597660282196 0.0