# vtk DataFile Version 3.0
LucasCarvalhoTCC Results
ASCII

DATASET POLYDATA
FIELD FieldData 1
TIME 1 1 double
1.9000000000000001

POINTS 531 float
0.02430399999999999 0.16425 0.0
0.5913384 0.481878 0.0
1.30475 0.591832 0.0
0.774126 0.951272 0.0
0.04779564148251592 0.1966194329439859 0.0
0.0726092153537953 0.2279866320496896 0.0
0.09876577335895967 0.2582426022760065 0.0
0.1262817198684718 0.2872673048853742 0.0
0.1551671626852806 0.3149288071400502 0.0
0.1854238368919928 0.3410826624766006 0.0
0.2170424591499632 0.3655716640299072 0.0
0.2499995164635996 0.3882263409476824 0.0
0.2842534387828506 0.4088665906889567 0.0
0.3197403359862048 0.4273050841371062 0.0
0.3563695945475563 0.4433531534921038 0.0
0.3940201673622058 0.4568300511916809 0.0
0.4325386107291805 0.4675762214989666 0.0
0.4717406913237268 0.4754709112408955 0.0
0.5114182513144845 0.480453442081874 0.0
0.5513531678859215 0.4825464217651069 0.0
0.6182637923774223 0.5096055604109244 0.0
0.647389101376845 0.5350126187545199 0.0
0.6784752958296183 0.5579802184492302 0.0
0.7112421079139344 0.5784810076698811 0.0
0.7454110434104482 0.5965507527581431 0.0
0.7807301979183381 0.6122562812860965 0.0
0.8169827939052532 0.6256694297140926 0.0
0.853985522124928 0.6368498290413532 0.0
0.8915818964261243 0.6458353363890481 0.0
0.9296339776508085 0.6526379336565091 0.0
0.9680139759519513 0.6572432424840469 0.0
1.006596418266983 0.659612648128084 0.0
1.045251165872634 0.6596877658251245 0.0
1.083837680945672 0.657397570658483 0.0
1.122201320191055 0.6526688455666412 0.0
1.160173053543044 0.6454405726452737 0.0
1.197574286953346 0.6356824063786186 0.0
1.23422961949795 0.6234159704281613 0.0
1.26998758503999 0.6087366500005643 0.0
1.285086682927543 0.6256533177085738 0.0
1.263669745906668 0.6583917156018083 0.0
1.240480125919214 0.6898988493917133 0.0
1.215532715641304 0.7200329197235763 0.0
1.188869833862339 0.7486599839005789 0.0
1.160556835593143 0.7756559317113654 0.0
1.130680194163798 0.8009104211039757 0.0
1.099347083827048 0.8243335727704395 0.0
1.066684425336412 0.8458643604021228 0.0
1.03283497048792 0.8654772531176074 0.0
0.9979492572630678 0.8831824104874066 0.0
0.9621749986495024 0.8990166556695112 0.0
0.9256475378616493 0.9130272060048579 0.0
0.8884846540507749 0.9252538945090274 0.0
0.8507866567183312 0.935715378288671 0.0
0.8126405010322847 0.9444016349017643 0.0
0.7365055179612304 0.9396161853607135 0.0
0.699310855231089 0.9266666891603924 0.0
0.6626179171945521 0.9123577070090924 0.0
0.6264901449910028 0.8966765244755546 0.0
0.5909789825447118 0.8796450886595113 0.0
0.556124897941028 0.8613059841617771 0.0
0.5219601957009091 0.8417124664434518 0.0
0.4885110616878257 0.8209207172498462 0.0
0.4558007060429968 0.7989848675704875 0.0
0.4238520247653796 0.775953675763176 0.0
0.3926900138417566 0.7518687036338616 0.0
0.3623437622133722 0.7267636709390595 0.0
0.3328479550295906 0.7006647540504483 0.0
0.3042438201183181 0.6735915983461908 0.0
0.2765795358619001 0.6455588748284606 0.0
0.2499101143933102 0.6165781952942546 0.0
0.2242967982692083 0.5866601984136335 0.0
0.1998060807431611 0.5558166834807132 0.0
0.1765083808984156 0.5240625786010467 0.0
0.154476512720734 0.491417660368959 0.0
0.133784033184808 0.457907916333494 0.0
0.114503564227142 0.4235664945146766 0.0
0.09670517293008124 0.3884342245925089 0.0
0.0804548910754031 0.3525597611689231 0.0
0.06581337946329963 0.3159993090744527 0.0
0.05283482490365372 0.2788161107032479 0.0
0.0415660226296666 0.2410796291505872 0.0
0.03204569406625649 0.2028646095712164 0.0
0.5272009874003867 0.6419624505772817 0.0
0.7421848286576707 0.7716726266421574 0.0
0.8789503364783713 0.7829234141383637 0.0
0.6149390992905563 0.7449438030688011 0.0
0.4064556042659638 0.5942834991165423 0.0
0.9875021850865396 0.7666507358101158 0.0
0.3188065960661005 0.539594034984892 0.0
0.61365100263957 0.6399487878797632 0.0
0.8049090660915541 0.8464379870891131 0.0
0.7099820328572021 0.6828840522539854 0.0
0.5239467234991928 0.7406922291088611 0.0
0.8154056325591208 0.7211774015928547 0.0
0.6676178829014909 0.8152713180209475 0.0
0.4416080359619968 0.674360953773491 0.0
0.489443615375965 0.5654986742123573 0.0
1.076665773779852 0.7387182918829318 0.0
0.250390543112057 0.4877450112830265 0.0
0.5736819937919005 0.5790366884881447 0.0
0.7263706755366466 0.8615301097563091 0.0
0.940143307772686 0.8233944909985552 0.0
0.927065543677544 0.7236459161626674 0.0
0.8744389806957806 0.8609114380468947 0.0
0.336888362650554 0.6081958070931937 0.0
0.2030757334857187 0.4383942902513459 0.0
0.3861483329720647 0.5255533415902591 0.0
0.5621001921466506 0.7923778419149285 0.0
0.6822897332295245 0.7428043323059399 0.0
0.5764061681675353 0.6881266532454204 0.0
1.129195449682892 0.7163224153578123 0.0
0.8157794419559141 0.7831214907157077 0.0
0.3806644703311284 0.6554275822782399 0.0
0.7695737871052837 0.669593045341503 0.0
0.4699375460410929 0.6217118815516158 0.0
0.6830867370872363 0.630350317562806 0.0
1.040416897214502 0.7929392348941093 0.0
0.4604428393605979 0.7321209818568342 0.0
0.8729552856459739 0.7015083313474691 0.0
1.017010765275644 0.7166925631396708 0.0
0.6458785458483771 0.6946878992565794 0.0
0.7733575582969163 0.8941098392103913 0.0
0.4457537579383052 0.5273353624588528 0.0
0.163830623786951 0.3903175742448083 0.0
0.6095823984734953 0.8256600013628639 0.0
0.2618074352614998 0.5435604438425528 0.0
0.6287880420949764 0.5875838132975476 0.0
0.3100402147222924 0.4835410260423071 0.0
0.5422177893302824 0.5343158927797464 0.0
0.9964262112680041 0.8213447667248638 0.0
0.4971609598823845 0.6906859160718212 0.0
0.5740517260168769 0.633982031239429 0.0
0.7423299505107201 0.7218768583704394 0.0
0.767147744476665 0.819658485932403 0.0
0.9427329070375209 0.7774595780066723 0.0
0.8375285793481674 0.8869398470561132 0.0
0.2879426409425497 0.5872676364411625 0.0
0.6797562629663748 0.8647676397847667 0.0
1.171674168522591 0.6949964056806914 0.0
0.5261010885606964 0.6055079299963303 0.0
0.7081534744446967 0.8078672678314597 0.0
0.9681672688626206 0.705385299758921 0.0
0.7364069054947873 0.6432919177737106 0.0
0.363826821075015 0.5678764295233764 0.0
0.826170216989844 0.6605791783255148 0.0
0.1284439337099834 0.3602715082199688 0.0
0.518140828090112 0.783905985497134 0.0
0.8452908336054504 0.8167586152211004 0.0
0.2015204468558833 0.492088055688788 0.0
0.4005883523205732 0.7121294304856254 0.0
0.3551392316798573 0.4864133323669936 0.0
0.2501727034998737 0.4443035857235296 0.0
0.857938396055507 0.7390317828783199 0.0
0.9245301815433076 0.8668102132501951 0.0
0.5702050292970205 0.7323438487067678 0.0
1.111607633075016 0.759318252473435 0.0
0.6317193755596126 0.7853891653733797 0.0
0.7921381265818805 0.7497379312370454 0.0
1.088942426366261 0.7015435214091311 0.0
0.5818207607488639 0.5352340257544296 0.0
0.4203532416309484 0.6369649631143086 0.0
0.4854818714173937 0.5131439318707094 0.0
0.4475429831528036 0.5690430472086269 0.0
0.8968753306595262 0.8225547516037004 0.0
0.6339557898063448 0.8543470494763272 0.0
0.3416564411796998 0.6516449771136894 0.0
1.082970576264455 0.7856036465430698 0.0
0.2255204648032354 0.5229464838393291 0.0
0.7335043541589261 0.9012744999286941 0.0
0.9097052989734319 0.6921177492721042 0.0
0.5363428275528405 0.6992389299864537 0.0
0.9657777897300287 0.8588269742066746 0.0
1.025947476617909 0.7556651119714124 0.0
0.1090829970454354 0.3226173037985549 0.0
0.4836644525169279 0.7663103281018557 0.0
0.6910856326166581 0.777867529208468 0.0
0.6694391877434097 0.5946719355048008 0.0
0.2954883530575775 0.4501042133334518 0.0
0.6746032498128595 0.6643957640016517 0.0
1.054636636429828 0.6974583960183274 0.0
0.8939255235163368 0.7470597914537064 0.0
0.3749741568555516 0.6190655430398917 0.0
1.204101441114554 0.6801433534918062 0.0
0.6130053345415899 0.6785345531932346 0.0
0.7679719108452487 0.8562682874000032 0.0
0.9710820219997449 0.8008372590855476 0.0
0.1608022352294362 0.4242591696906621 0.0
0.2865399820604418 0.5141369963640697 0.0
0.1962258775846918 0.4008383427744516 0.0
0.6210920174972845 0.5516143721732873 0.0
0.4843009180093644 0.6583977883024127 0.0
0.5695029195102991 0.8267073580550881 0.0
0.9562891163300477 0.7436031251145003 0.0
0.4174190173896447 0.5044019081507806 0.0
0.410860431802698 0.5535781448116232 0.0
0.8709320861791604 0.9002602580953145 0.0
0.427354757192076 0.7399041791280969 0.0
0.7107884943357746 0.7172753954970394 0.0
1.030382288537246 0.8267335242583146 0.0
0.7737440530215844 0.7115751739064536 0.0
0.8042035044852396 0.9123190309183211 0.0
0.0480920891272324 0.2181807374272496 0.0
0.3695079235280397 0.6886893012630373 0.0
0.773516204411121 0.7830673827025234 0.0
0.302776671534508 0.6210168062901616 0.0
0.7150573728414059 0.6149413270404035 0.0
0.5863276441271683 0.769748656022605 0.0
1.143752049005473 0.6780480059671409 0.0
0.6477132714923303 0.7318578097016951 0.0
0.8380052680878572 0.8531154611905379 0.0
0.5966224054445893 0.6051703156405629 0.0
0.3207240819522855 0.5772784374275386 0.0
0.3520131451607586 0.5263918604440553 0.0
0.8573528491808811 0.6709738722470224 0.0
0.1797236573643203 0.460867988842514 0.0
0.5540828191547277 0.6661566975721369 0.0
1.158039843450239 0.7357536542887966 0.0
0.08638006908591334 0.286237566592474 0.0
0.790861820497242 0.6466611559014377 0.0
0.5362079962218838 0.8121454698907893 0.0
0.9405172130232713 0.6862060282668497 0.0
0.6039359324506977 0.711463595189489 0.0
0.4440093493753478 0.6096873538428137 0.0
0.5500746279087338 0.7620941994763282 0.0
0.2578504496023611 0.5739900063885278 0.0
0.502526452350101 0.6209820553182169 0.0
0.6799833858912959 0.7033681517905728 0.0
0.7183487148906835 0.7518430858176317 0.0
0.8006701240044786 0.8118713608014352 0.0
0.1304684854221093 0.3934039266496895 0.0
1.00789495394612 0.7937868725857601 0.0
0.696960396255943 0.893370944718147 0.0
0.8258315165019564 0.7538365084989149 0.0
0.8462950259502577 0.775614153529746 0.0
0.4082018839227037 0.6749460331934272 0.0
0.7025889307788081 0.8378536687159448 0.0
0.4666676520109517 0.6984557076050861 0.0
[...]
POINT_DATA 531

VECTORS Velocity float
0.0000000000000000 1.0000000000000000 0.0
0.0000000000000000 1.0000000000000000 0.0
2.6382147313127269 -0.9592218526153954 0.0
1.8526475800998550 1.0338840927817032 0.0
0.0000000000000000 1.0000000000000000 0.0
0.0000000000000000 1.0000000000000000 0.0
0.0000000000000000 1.0000000000000000 0.0
0.0000000000000000 1.0000000000000000 0.0
0.0000000000000000 1.0000000000000000 0.0
0.0000000000000000 1.0000000000000000 0.0
0.0000000000000000 1.0000000000000000 0.0
0.0000000000000000 1.0000000000000000 0.0
0.0000000000000000 1.0000000000000000 0.0
0.0000000000000000 1.0000000000000000 0.0
0.0000000000000000 1.0000000000000000 0.0
0.0000000000000000 1.0000000000000000 0.0
0.0000000000000000 1.0000000000000000 0.0
0.0000000000000000 1.0000000000000000 0.0
0.0000000000000000 1.0000000000000000 0.0
0.0000000000000000 1.0000000000000000 0.0
0.0000000000000000 0.0000000000000000 0.0
0.0000000000000000 0.0000000000000000 0.0
0.0000000000000000 0.0000000000000000 0.0
0.0000000000000000 0.0000000000000000 0.0
0.0000000000000000 0.0000000000000000 0.0
0.0000000000000000 0.0000000000000000 0.0
0.0000000000000000 0.0000000000000000 0.0
0.0000000000000000 0.0000000000000000 0.0
0.0000000000000000 0.0000000000000000 0.0
0.0000000000000000 0.0000000000000000 0.0
0.0000000000000000 0.0000000000000000 0.0
0.0000000000000000 0.0000000000000000 0.0
0.0000000000000000 0.0000000000000000 0.0
0.0000000000000000 0.0000000000000000 0.0
0.0000000000000000 0.0000000000000000 0.0
0.0000000000000000 0.0000000000000000 0.0
0.0000000000000000 0.0000000000000000 0.0
0.0000000000000000 0.0000000000000000 0.0
0.0000000000000000 0.0000000000000000 0.0
2.6784094920526313 -1.7947040257614872 0.0
3.6716116405876016 -2.3054590086355411 0.0
3.7567151147780891 -2.2269773329049118 0.0
3.7465974929844075 -1.9506423990509392 0.0
3.7706389777628524 -1.6834557374379495 0.0
3.7937758485708462 -1.3315114916523199 0.0
3.7929003252952094 -1.1118274735999381 0.0
3.8108178202699552 -0.8568539379109080 0.0
3.6917807557776481 -0.5254572833704368 0.0
3.6464174232360280 -0.2734699190165642 0.0
3.5393350264161230 -0.0204887256468820 0.0
3.3803229963152153 0.2221642708319973 0.0
3.2681386620744308 0.4178541295289357 0.0
3.0376535759609800 0.6075047230933337 0.0
2.5699986120715548 1.0603697710559279 0.0
1.8780332064398029 0.9383975002976368 0.0
0.0000000000000000 0.0000000000000000 0.0
0.0000000000000000 0.0000000000000000 0.0
0.0000000000000000 0.0000000000000000 0.0
0.0000000000000000 0.0000000000000000 0.0
0.0000000000000000 0.0000000000000000 0.0
0.0000000000000000 0.0000000000000000 0.0
0.0000000000000000 0.0000000000000000 0.0
0.0000000000000000 0.0000000000000000 0.0
0.0000000000000000 0.0000000000000000 0.0
0.0000000000000000 0.0000000000000000 0.0
0.0000000000000000 0.0000000000000000 0.0
0.0000000000000000 0.0000000000000000 0.0
0.0000000000000000 0.0000000000000000 0.0
0.0000000000000000 0.0000000000000000 0.0
0.0000000000000000 0.0000000000000000 0.0
0.0000000000000000 0.0000000000000000 0.0
0.0000000000000000 0.0000000000000000 0.0
0.0000000000000000 0.0000000000000000 0.0
0.0000000000000000 0.0000000000000000 0.0
0.0000000000000000 0.0000000000000000 0.0
0.0000000000000000 0.0000000000000000 0.0
0.0000000000000000 0.0000000000000000 0.0
0.0000000000000000 0.0000000000000000 0.0
0.0000000000000000 0.0000000000000000 0.0
0.0000000000000000 0.0000000000000000 0.0
0.0000000000000000 0.0000000000000000 0.0
0.0000000000000000 0.0000000000000000 0.0
0.0000000000000000 0.0000000000000000 0.0
3.6853673705619920 2.4798521847848800 0.0
4.0164521068465531 1.8642548944471120 0.0
3.8372585200460141 1.0423201081028362 0.0
3.7490466074050204 2.1551809542168709 0.0
3.7238627084777214 2.8918875342363211 0.0
3.6268875142163775 0.1613169567043556 0.0
3.8930915435257489 3.4959223492877798 0.0
3.5907044805634101 2.3968426278487223 0.0
3.5813424303988621 1.6737066218854604 0.0
3.5678385746411165 1.7029550544038763 0.0
2.9900448032492211 1.9461063623294945 0.0
3.5409498782248798 1.3095762313936430 0.0
3.3600467005034305 1.7100359819928999 0.0
3.1759678664786244 2.4343801070027755 0.0
3.2609248253288481 2.3932883157813936 0.0
3.2040227956518810 -0.4011106754533949 0.0
3.5984202211517133 3.8691762307419428 0.0
2.6068887438903769 2.1538812405148660 0.0
3.1103033684566346 1.4332187126483544 0.0
3.6936296100688333 0.5229617223060935 0.0
2.7482910889351704 0.4159287718520480 0.0
3.4348154509023017 1.0693658031503328 0.0
2.8259486028910961 2.6981783414140246 0.0
3.4904560422280504 4.5898672753965446 0.0
3.5877643825489871 2.6165349623616687 0.0
2.5074700659341964 1.4764567247653877 0.0
4.0673558894159578 2.1171868358667680 0.0
3.7555545612508467 2.4592871707870825 0.0
2.9658656037683042 -0.7572218012554023 0.0
3.8972826582720530 1.5413408315432824 0.0
2.5677978206526504 2.1469806026253320 0.0
2.7366250932374370 1.0850534992811707 0.0
3.6870653421526134 2.6142532961699949 0.0
2.8066788537268050 1.4305573859105873 0.0
3.7448451030932475 -0.2353024261806744 0.0
2.1731928745942457 1.5805341422583596 0.0
2.6103912302358174 0.6825290810967491 0.0
2.4299347481224385 0.0926492290777780 0.0
3.8973801565442150 2.3120766240164712 0.0
2.7562933379364623 1.7147333651626491 0.0
2.8122811262256686 2.4033160119294239 0.0
2.9351622885574002 4.7380092934682239 0.0
2.5968688870507002 1.3833927600336307 0.0
2.5356248005789439 2.9147338795999027 0.0
2.3045877065185363 1.7618858797853616 0.0
3.2505384660817556 3.4938649997609512 0.0
1.9723056483068919 1.7914665276526092 0.0
3.7216377203474544 0.0590540403016950 0.0
3.4807823872683152 2.3197622871673649 0.0
3.6069260595818857 2.4565343710021366 0.0
3.8958576389343058 1.7888081129743247 0.0
3.8473624982979491 1.8304835559186019 0.0
3.7098219462074753 0.4750685431625039 0.0
3.0176634562965936 1.4282071828731167 0.0
1.6729142970453692 1.7089764330316832 0.0
2.4998066155002312 1.1851561631392813 0.0
2.9196314149362985 -0.9978127050991907 0.0
3.5292094471539848 2.4457566228292631 0.0
3.8154580922906800 1.9020548864349369 0.0
1.7393621521972253 0.1173014996021069 0.0
2.1267865912182065 1.0941179780537362 0.0
3.7052812479692929 3.1743481017440414 0.0
1.3025925247725150 0.4928726011173351 0.0
1.8314521404307083 3.2598929059509527 0.0
1.6452627417866426 0.9705583079938460 0.0
3.7314535027156230 1.3338254897896635 0.0
1.8403979402701012 2.2709347587117623 0.0
1.1883585769848659 0.8180668134850321 0.0
2.0896765471511167 2.3810593397748616 0.0
2.7739323014640562 3.3852853936701428 0.0
3.5538853894545372 1.0730041595044195 0.0
3.4718518334302284 0.6352772732935212 0.0
3.5488788447890913 2.2619096956438791 0.0
3.7233538870674932 -0.9743533157484086 0.0
3.4178545390429633 1.8210374217497693 0.0
3.9246033721282712 1.5665102783872022 0.0
1.8053941656928814 -0.3162862867459936 0.0
1.5424267442045043 1.5633287761350680 0.0
3.3862647526261571 2.6485063460406191 0.0
1.3476449921008562 1.7846106343134589 0.0
3.5317613436698156 2.6328665321329296 0.0
3.6804691839574200 0.9319356210179720 0.0
1.6447544820334143 0.8709044764195367 0.0
1.4078778640088456 1.3702208623331396 0.0
3.8078123853356605 -0.6748825691501604 0.0
1.8270118809218381 1.8589702074016194 0.0
1.6578991443957303 0.8913922681629528 0.0
1.5471148212418528 0.1807329122713790 0.0
3.6208865596864221 2.3631976114549826 0.0
3.5894290053767155 0.2653522984080343 0.0
3.3683991102774069 -0.1753023886420507 0.0
1.5934230615046947 3.1018963924519323 0.0
1.3390488789582731 1.1262883054583501 0.0
3.9583728877863180 1.9971364608575268 0.0
1.4069177828020394 0.8639586995929588 0.0
1.5133389099802246 2.7776664344814219 0.0
3.5920314014200678 2.0467761009501024 0.0
1.5232070434064200 -0.2519621996209018 0.0
3.5630787000217885 0.8019969196882683 0.0
3.1620088313086288 2.5767857346929866 0.0
2.6964544083628987 -1.3856811622999501 0.0
3.7938893423322426 2.4286056395829729 0.0
3.4548254879231490 1.8365284266319450 0.0
3.7379860105268738 0.2708616617710328 0.0
2.0000559832676776 3.0555240575788081 0.0
3.6070300095634735 3.6921564224946604 0.0
2.4436084195270307 4.0337594623709228 0.0
0.9257884564483976 0.8815990040686537 0.0
3.5883503996143165 2.5116474830589950 0.0
1.2195402812702372 0.6438998161820384 0.0
3.2133570843626025 0.3066472726557080 0.0
2.1056957174348661 2.1779670743838770 0.0
3.5460958335100390 2.7786641998776509 0.0
2.9694708213162251 0.9834228113958841 0.0
0.9345661032730489 0.6865889458183984 0.0
3.9842179765895396 1.8875391551751537 0.0
3.7596800318594035 -0.2142737783090015 0.0
3.6282027264315837 1.5193020026259980 0.0
2.3527412959925864 1.5290529866681746 0.0
0.7641785304212694 3.4574472791798154 0.0
1.0516045160207976 0.9265462990648368 0.0
3.9611409410577378 1.7180239262246375 0.0
1.3293152170392930 1.0742891398123093 0.0
1.2972441297372255 0.5042260518875238 0.0
3.2810638308870050 1.9428125266749534 0.0
1.4905046894519329 -0.2885230688808443 0.0
3.9863318548633626 2.2578346291952296 0.0
3.5305265381059709 1.4519813721328787 0.0
3.1442079177301987 2.2467806135988289 0.0
2.9212606482284436 3.0430917793408967 0.0
3.8790259536711593 3.2483545850633240 0.0
1.1560219648234427 0.3452924985285853 0.0
1.7252381405481911 2.4109143587860915 0.0
3.7459228062150660 2.4445850832064862 0.0
3.6649396838415162 -1.2784240372837004 0.0
1.2131458547594431 3.3076070340536954 0.0
1.3130308850279588 0.5250628877086634 0.0
1.0931341641797518 0.4360906037045249 0.0
1.1249383021609343 0.0626852600887112 0.0
3.8542130926701708 2.3339769690558043 0.0
3.6770403189923320 2.7652581709609558 0.0
2.9349854918711356 1.7636344180233428 0.0
1.0460209698837184 1.5120777482686487 0.0
3.6842674811408460 2.5192471476226421 0.0
3.9368437259789784 2.1835260378824288 0.0
4.0487521700514284 1.9535633189732600 0.0
3.8159114783814654 1.6247492708603046 0.0
1.6337654701537545 2.3198863237625647 0.0
3.7529690221556624 -0.0017470975056238 0.0
1.3725476754274721 0.6661636491859138 0.0
3.8349237162942931 1.3934599336252607 0.0
3.8389534310400037 1.2628663965759952 0.0
2.6307299737737315 1.8984460657953774 0.0
3.2261584201214926 1.5223194888412246 0.0
3.1216801651609307 2.1818896010694151 0.0
3.1053091212066448 1.9894783855415796 0.0
3.4328306619904785 1.6658267257371089 0.0
3.9028865684536616 2.1274502600945389 0.0
1.2776704588112131 0.1871230925581661 0.0
2.9303757168427764 2.0934860956416066 0.0
2.7588895378631260 0.9182511074231070 0.0
2.8788324511641163 2.0811041735013629 0.0
2.8030315866861963 0.0197643888439086 0.0
3.8418796489160090 -0.4639582906872965 0.0
0.9481683051270599 0.9749401741271712 0.0
2.3160017655206406 -1.0735421931425035 0.0
3.7457997503808196 2.4521039175678405 0.0
2.9224713790056733 1.4900777234049709 0.0
3.1112569578181688 1.6790382803769239 0.0
3.4837180719224667 3.9858309950465673 0.0
0.5991918140696479 1.6464861346945141 0.0
3.6122468289342575 2.5931778001581147 0.0
1.5243490564709710 1.8331165556855684 0.0
3.0418149677638571 -0.6070696558498750 0.0
3.7631106922975928 0.7783725296589612 0.0
3.4645428899416904 2.3866083565639085 0.0
0.7259243930283127 0.5797088722142968 0.0
1.1844429907096572 2.2347278465271079 0.0
3.1200560690993178 2.7910823838279124 0.0
1.7165864173207426 2.9236280816362457 0.0
1.0306640823170254 1.8784024285828924 0.0
0.9067635312606053 1.5849622133841652 0.0
1.6641140096585407 3.0814361219469997 0.0
1.5410387233537417 1.2046527001338361 0.0
2.1899366347150768 -1.4153686841486621 0.0
2.2635058516618898 1.7360010086862336 0.0
0.7751940446095109 0.3342286027321087 0.0
0.8364198808574114 0.6363997893198028 0.0
3.8741855065174065 3.4568702475904867 0.0
1.3627163861927241 -0.0673019790948319 0.0
3.1453067743858383 0.7900652317657729 0.0
3.6487907210439379 0.0242675371328673 0.0
3.7221891941456868 2.3225951343795064 0.0
1.1250731606005357 3.3292140641320596 0.0
2.9247625168038436 0.7258006288214301 0.0
0.6844963281751330 0.4186058571812419 0.0
3.5720367879632273 -0.2904040266574669 0.0
3.5551465802906228 2.6420048986085223 0.0
0.9148439483680120 -0.0068267468889511 0.0
2.8664239906556492 -0.1786148869334641 0.0
2.9016815920840457 1.5772683474573748 0.0
3.6886942557700428 -1.6571762146663507 0.0
0.9825872037470398 0.1213799395482678 0.0
2.6941930047394020 1.6527425528784085 0.0
2.9090175252537867 2.3297974548383809 0.0
2.3516376004360531 1.9164737556291558 0.0
3.6821148499784022 2.4562114171077272 0.0
3.7613161131956967 1.8269026101103665 0.0
2.7628985166910254 1.1253625435793608 0.0
3.6799927452549710 3.7895974167278181 0.0
3.9553190612108384 1.8763131465855700 0.0
1.0448193186011396 0.6456274768424128 0.0
3.1427023282927982 3.2690888720952209 0.0
2.8889111280986985 1.6731469514624342 0.0
3.9877223302204170 1.9736709237186345 0.0
3.9712500306437204 1.7696316690315221 0.0
3.1035991810380259 2.2596514661891329 0.0
3.5852839771524621 2.4552610414813287 0.0
1.2894388965636561 -0.7636639042439529 0.0
3.5475172009773166 0.6568335717665287 0.0
3.6843388582046650 0.2421137239420317 0.0
1.6700453168254545 4.0683745979343175 0.0
2.3902465573043461 1.9795047943644499 0.0
0.7738749416812679 0.6117543415808201 0.0
3.7083154952087871 2.4675651391103948 0.0
4.0069808134806886 1.8734575517826739 0.0
3.8340151149835173 1.0741166588373972 0.0
3.7003819874637234 2.1254313430055172 0.0
3.7372329704959499 2.8630228190304359 0.0
3.6284072342270699 0.1872810674612569 0.0
3.9018396709684811 3.4784138032397625 0.0
3.6492980139263960 2.4335983927326126 0.0
3.5144007043460506 1.6912179826591573 0.0
3.6385288381719696 1.7439592439777061 0.0
2.9253600878843606 1.8955887596494625 0.0
3.6056177478867353 1.3405229256474911 0.0
3.2839812705975566 1.6765692500085381 0.0
3.1335270062250462 2.3823736876767199 0.0
3.3257578687241427 2.3919008719781085 0.0
3.2064243365882068 -0.3935583260689583 0.0
3.6014015524928102 3.8630906391035862 0.0
2.6757024147777493 2.1816808021817842 0.0
3.0344863271065816 1.4149683589933444 0.0
3.6599702645725940 0.5498731164940369 0.0
2.7920465207801994 0.4355618797266494 0.0
3.3804912111119214 1.0905432648045765 0.0
2.8112499494175265 2.6654546331967643 0.0
3.4911652300002993 4.5890253946569137 0.0
3.6218810741526508 2.6120987383676288 0.0
2.4355850305570104 1.4344539536640928 0.0
4.0684671854365568 2.1218301572135969 0.0
3.7472255436321631 2.4444464444944005 0.0
2.9660659650791796 -0.7567398464096163 0.0
3.8898788939320319 1.5701231317787343 0.0
2.5355387295594052 2.1031479606832320 0.0
2.8114323931413714 1.1162125021936078 0.0
3.7043348582975852 2.5882751126757797 0.0
2.8857594082199394 1.4728144917755270 0.0
3.7358594108185135 -0.2197587081992027 0.0
2.1152803304032206 1.5366887889682950 0.0
2.6740802884478336 0.7021293373384974 0.0
2.4460215754078813 0.1041152350577579 0.0
3.9282881519028465 2.3313076017677195 0.0
2.6930747491417084 1.7108783419465547 0.0
2.8663769368864109 2.4059561852179976 0.0
2.9351487111554300 4.7379620553375652 0.0
2.5247546676748063 1.3459816786875261 0.0
2.5332626996333159 2.9035878650765636 0.0
2.3733096112497543 1.8105462073180949 0.0
3.2629652708304815 3.4944789267115439 0.0
2.0362012704814338 1.8024085053584080 0.0
3.6977258642964395 0.0797091209626020 0.0
3.4324282271641566 2.2735043720015242 0.0
3.6537029224774837 2.4682607129255665 0.0
3.9465638627308977 1.8142690311993597 0.0
3.7904767788339937 1.8363834221401205 0.0
3.7032317708038311 0.5031156271064637 0.0
2.9698544639692752 1.4377141735251915 0.0
1.6637538935120897 1.6944481708224739 0.0
2.4285304643945422 1.1556359143118944 0.0
2.9195570890914087 -0.9977179623359307 0.0
3.5786616413443855 2.4506375014671473 0.0
3.7522168431487808 1.8802380266071150 0.0
1.7703610909910235 0.1310434139497881 0.0
2.1931017237625623 1.1260390361640324 0.0
3.7157276626682645 3.1507886415954283 0.0
1.3518189230176028 0.5107906741119871 0.0
1.8314310402642449 3.2599150515468645 0.0
1.5930306394026799 0.9369458311843768 0.0
3.6897997260950377 1.3627064375707323 0.0
1.8400032960624422 2.2683563490741192 0.0
1.1552131909573695 0.7903535086779571 0.0
2.1110315983899408 2.3810367409878306 0.0
2.7777440833973155 3.3844384785762682 0.0
3.5993464082396076 1.1036201757288808 0.0
3.4355649737421161 0.6529841087617809 0.0
3.4991306534923927 2.2209399787487079 0.0
3.7232548819786517 -0.9726269272168343 0.0
3.3448393398717742 1.7846676983443572 0.0
3.9572272428762871 1.5925210042539941 0.0
1.8067387401353190 -0.3145904113239743 0.0
1.5935223419673090 1.5860023493180502 0.0
3.3685053740513431 2.6046846381113546 0.0
1.3923053069846789 1.7895076434234409 0.0
3.5773488295206648 2.6188787065589381 0.0
3.6401920190661095 0.9638597628228321 0.0
1.5892323827876536 0.8430510827197666 0.0
1.3871561541802691 1.3426174682972953 0.0
3.8058097103544912 -0.6681040044610675 0.0
1.8257412099476571 1.8536200719687244 0.0
1.6124249713893448 0.8825152938565547 0.0
1.5892861426159830 0.1925306206807842 0.0
3.5798063929057466 2.3264370591020112 0.0
3.5646183701606469 0.2798837292793973 0.0
3.3727528607809667 -0.1545654272279914 0.0
1.5934105687724311 3.1019004342818017 0.0
1.2923613308835042 1.0874481507256122 0.0
3.9133333155318102 1.9826745647998298 0.0
1.4620648648080643 0.8968295635789727 0.0
1.5195752826960729 2.7792341817409385 0.0
3.6617637366063018 2.0860662084180617 0.0
1.5294037706590773 -0.2471943198303400 0.0
3.5891213314171431 0.8317156786956885 0.0
3.1481957321688196 2.5332562775156822 0.0
2.6964278179192029 -1.3858240504514017 0.0
3.8216231583056679 2.4417139533002366 0.0
3.3798157192709044 1.8330814609202986 0.0
3.7189308823434950 0.2948131120398431 0.0
2.0001959733065822 3.0553896997122547 0.0
3.6134415022190298 3.6831720941973156 0.0
2.4437608779184044 4.0336463287435222 0.0
0.9638231893746021 0.9135140054042062 0.0
3.5712763523375513 2.4735784497109967 0.0
1.1728221154796707 0.6197325213208754 0.0
3.2381555007738712 0.3298848817944781 0.0
2.1424700108280796 2.1811279065569988 0.0
3.5867033924730829 2.7662601808612295 0.0
2.9348581156528559 0.9962734158947959 0.0
0.9017865897473630 0.6608429395603191 0.0
4.0285808472904883 1.9143667620024294 0.0
3.7460013535190941 -0.2031698452407743 0.0
3.6939565949153095 1.5506346054416320 0.0
2.3163422886978351 1.5306530547919088 0.0
0.7641785304212695 3.4574472791798159 0.0
1.0253688184494465 0.8993689516632640 0.0
3.9467159128453750 1.7349907614894811 0.0
1.3172945654264738 1.0574242502674065 0.0
1.3515483665861574 0.5282370373615418 0.0
3.2081937822171018 1.9000042232455931 0.0
1.4904418970475508 -0.2884563696928267 0.0
3.9819130085262469 2.2584587710195074 0.0
3.4643337953308353 1.4719786496093468 0.0
3.2147785392552635 2.2846897476189052 0.0
2.9115052382859385 3.0167005811566914 0.0
3.9048997798080398 3.2413898922283431 0.0
1.2005859427219212 0.3586500536350730 0.0
1.7253471263331475 2.4101424433354905 0.0
3.7515262125890736 2.4332000099462512 0.0
3.6652135312048144 -1.2782395995780949 0.0
1.2131462884197277 3.3076072238187746 0.0
1.3636352419267594 0.5460827162008953 0.0
1.0471784983805426 0.4157521844879386 0.0
1.1597734975716039 0.0694451600369493 0.0
3.8441340383715534 2.3193731945752019 0.0
3.6956020471707514 2.7332064611451377 0.0
2.8649734756983554 1.7172206173884539 0.0
1.0405464212717288 1.5008821289248107 0.0
3.7090093584060773 2.5005803369317783 0.0
3.9764592622678920 2.2084680447246972 0.0
4.0568995306331868 1.9627821581581160 0.0
3.7711352646962255 1.6444549946930991 0.0
1.6337785699914329 2.3199592576302552 0.0
3.7403665235502577 0.0224066462234339 0.0
1.3280899834119180 0.6491281355358426 0.0
3.8639066432828346 1.4232511144368296 0.0
3.8404479147456070 1.2982519378714010 0.0
2.5898922191144149 1.8534703607069736 0.0
3.1492970095139605 1.4995806142658070 0.0
3.0698904337566004 2.1326752390685919 0.0
3.1838650231453860 2.0369119246547482 0.0
3.5084116377681149 1.6992165061916242 0.0
3.8521346686627966 2.1086922826178798 0.0
1.2988310087910091 0.1943150170218940 0.0
3.0020929068908200 2.1027443818456812 0.0
2.8299961761047356 0.9472969320954376 0.0
2.8174790143167900 2.0347381311836283 0.0
2.8254096585151398 0.0390601706011959 0.0
3.8354240203182615 -0.4570924542074115 0.0
0.9449773535126967 0.9686973946421339 0.0
2.3159632457189439 -1.0735676956270581 0.0
3.7785945694149765 2.4632259909522700 0.0