# vtk DataFile Version 3.0
LucasCarvalhoTCC Results
ASCII

DATASET POLYDATA
FIELD FieldData 1
TIME 1 1 double
4.7

POINTS 531 float
0.02430399999999999 0.16425 0.0
0.5913384 0.481878 0.0
1.30475 0.591832 0.0
0.774126 0.951272 0.0
0.04779564148251592 0.1966194329439859 0.0
0.0726092153537953 0.2279866320496896 0.0
0.09876577335895967 0.2582426022760065 0.0
0.1262817198684718 0.2872673048853742 0.0
0.1551671626852806 0.3149288071400502 0.0
0.1854238368919928 0.3410826624766006 0.0
0.2170424591499632 0.3655716640299072 0.0
0.2499995164635996 0.3882263409476824 0.0
0.2842534387828506 0.4088665906889567 0.0
0.3197403359862048 0.4273050841371062 0.0
0.3563695945475563 0.4433531534921038 0.0
0.3940201673622058 0.4568300511916809 0.0
0.4325386107291805 0.4675762214989666 0.0
0.4717406913237268 0.4754709112408955 0.0
0.5114182513144845 0.480453442081874 0.0
0.5513531678859215 0.4825464217651069 0.0
0.6182637923774223 0.5096055604109244 0.0
0.647389101376845 0.5350126187545199 0.0
0.6784752958296183 0.5579802184492302 0.0
0.7112421079139344 0.5784810076698811 0.0
0.7454110434104482 0.5965507527581431 0.0
0.7807301979183381 0.6122562812860965 0.0
0.8169827939052532 0.6256694297140926 0.0
0.853985522124928 0.6368498290413532 0.0
0.8915818964261243 0.6458353363890481 0.0
0.9296339776508085 0.6526379336565091 0.0
0.9680139759519513 0.6572432424840469 0.0
1.006596418266983 0.659612648128084 0.0
1.045251165872634 0.6596877658251245 0.0
1.083837680945672 0.657397570658483 0.0
1.122201320191055 0.6526688455666412 0.0
1.160173053543044 0.6454405726452737 0.0
1.197574286953346 0.6356824063786186 0.0
1.23422961949795 0.6234159704281613 0.0
1.26998758503999 0.6087366500005643 0.0
1.285086682927543 0.6256533177085738 0.0
1.263669745906668 0.6583917156018083 0.0
1.240480125919214 0.6898988493917133 0.0
1.215532715641304 0.7200329197235763 0.0
1.188869833862339 0.7486599839005789 0.0
1.160556835593143 0.7756559317113654 0.0
1.130680194163798 0.8009104211039757 0.0
1.099347083827048 0.8243335727704395 0.0
1.066684425336412 0.8458643604021228 0.0
1.03283497048792 0.8654772531176074 0.0
0.9979492572630678 0.8831824104874066 0.0
0.9621749986495024 0.8990166556695112 0.0
0.9256475378616493 0.9130272060048579 0.0
0.8884846540507749 0.9252538945090274 0.0
0.8507866567183312 0.935715378288671 0.0
0.8126405010322847 0.9444016349017643 0.0
0.7365055179612304 0.9396161853607135 0.0
0.699310855231089 0.9266666891603924 0.0
0.6626179171945521 0.9123577070090924 0.0
0.6264901449910028 0.8966765244755546 0.0
0.5909789825447118 0.8796450886595113 0.0
0.556124897941028 0.8613059841617771 0.0
0.5219601957009091 0.8417124664434518 0.0
0.4885110616878257 0.8209207172498462 0.0
0.4558007060429968 0.7989848675704875 0.0
0.4238520247653796 0.775953675763176 0.0
0.3926900138417566 0.7518687036338616 0.0
0.3623437622133722 0.7267636709390595 0.0
0.3328479550295906 0.7006647540504483 0.0
0.3042438201183181 0.6735915983461908 0.0
0.2765795358619001 0.6455588748284606 0.0
0.2499101143933102 0.6165781952942546 0.0
0.2242967982692083 0.5866601984136335 0.0
0.1998060807431611 0.5558166834807132 0.0
0.1765083808984156 0.5240625786010467 0.0
0.154476512720734 0.491417660368959 0.0
0.133784033184808 0.457907916333494 0.0
0.114503564227142 0.4235664945146766 0.0
0.09670517293008124 0.3884342245925089 0.0
0.0804548910754031 0.3525597611689231 0.0
0.06581337946329963 0.3159993090744527 0.0
0.05283482490365372 0.2788161107032479 0.0
0.0415660226296666 0.2410796291505872 0.0
0.03204569406625649 0.2028646095712164 0.0
0.5272009874003867 0.6419624505772817 0.0
0.7421848286576707 0.7716726266421574 0.0
0.8789503364783713 0.7829234141383637 0.0
0.6149390992905563 0.7449438030688011 0.0
0.4064556042659638 0.5942834991165423 0.0
0.9875021850865396 0.7666507358101158 0.0
0.3188065960661005 0.539594034984892 0.0
0.61365100263957 0.6399487878797632 0.0
0.8049090660915541 0.8464379870891131 0.0
0.7099820328572021 0.6828840522539854 0.0
0.5239467234991928 0.7406922291088611 0.0
0.8154056325591208 0.7211774015928547 0.0
0.6676178829014909 0.8152713180209475 0.0
0.4416080359619968 0.674360953773491 0.0
0.489443615375965 0.5654986742123573 0.0
1.076665773779852 0.7387182918829318 0.0
0.250390543112057 0.4877450112830265 0.0
0.5736819937919005 0.5790366884881447 0.0
0.7263706755366466 0.8615301097563091 0.0
0.940143307772686 0.8233944909985552 0.0
0.927065543677544 0.7236459161626674 0.0
0.8744389806957806 0.8609114380468947 0.0
0.336888362650554 0.6081958070931937 0.0
0.2030757334857187 0.4383942902513459 0.0
0.3861483329720647 0.5255533415902591 0.0
0.5621001921466506 0.7923778419149285 0.0
0.6822897332295245 0.7428043323059399 0.0
0.5764061681675353 0.6881266532454204 0.0
1.129195449682892 0.7163224153578123 0.0
0.8157794419559141 0.7831214907157077 0.0
0.3806644703311284 0.6554275822782399 0.0
0.7695737871052837 0.669593045341503 0.0
0.4699375460410929 0.6217118815516158 0.0
0.6830867370872363 0.630350317562806 0.0
1.040416897214502 0.7929392348941093 0.0
0.4604428393605979 0.7321209818568342 0.0
0.8729552856459739 0.7015083313474691 0.0
1.017010765275644 0.7166925631396708 0.0
0.6458785458483771 0.6946878992565794 0.0
0.7733575582969163 0.8941098392103913 0.0
0.4457537579383052 0.5273353624588528 0.0
0.163830623786951 0.3903175742448083 0.0
0.6095823984734953 0.8256600013628639 0.0
0.2618074352614998 0.5435604438425528 0.0
0.6287880420949764 0.5875838132975476 0.0
0.3100402147222924 0.4835410260423071 0.0
0.5422177893302824 0.5343158927797464 0.0
0.9964262112680041 0.8213447667248638 0.0
0.4971609598823845 0.6906859160718212 0.0
0.5740517260168769 0.633982031239429 0.0
0.7423299505107201 0.7218768583704394 0.0
0.767147744476665 0.819658485932403 0.0
0.9427329070375209 0.7774595780066723 0.0
0.8375285793481674 0.8869398470561132 0.0
0.2879426409425497 0.5872676364411625 0.0
0.6797562629663748 0.8647676397847667 0.0
1.171674168522591 0.6949964056806914 0.0
0.5261010885606964 0.6055079299963303 0.0
0.7081534744446967 0.8078672678314597 0.0
0.9681672688626206 0.705385299758921 0.0
0.7364069054947873 0.6432919177737106 0.0
0.363826821075015 0.5678764295233764 0.0
0.826170216989844 0.6605791783255148 0.0
0.1284439337099834 0.3602715082199688 0.0
0.518140828090112 0.783905985497134 0.0
0.8452908336054504 0.8167586152211004 0.0
0.2015204468558833 0.492088055688788 0.0
0.4005883523205732 0.7121294304856254 0.0
0.3551392316798573 0.4864133323669936 0.0
0.2501727034998737 0.4443035857235296 0.0
0.857938396055507 0.7390317828783199 0.0
0.9245301815433076 0.8668102132501951 0.0
0.5702050292970205 0.7323438487067678 0.0
1.111607633075016 0.759318252473435 0.0
0.6317193755596126 0.7853891653733797 0.0
0.7921381265818805 0.7497379312370454 0.0
1.088942426366261 0.7015435214091311 0.0
0.5818207607488639 0.5352340257544296 0.0
0.4203532416309484 0.6369649631143086 0.0
0.4854818714173937 0.5131439318707094 0.0
0.4475429831528036 0.5690430472086269 0.0
0.8968753306595262 0.8225547516037004 0.0
0.6339557898063448 0.8543470494763272 0.0
0.3416564411796998 0.6516449771136894 0.0
1.082970576264455 0.7856036465430698 0.0
0.2255204648032354 0.5229464838393291 0.0
0.7335043541589261 0.9012744999286941 0.0
0.9097052989734319 0.6921177492721042 0.0
0.5363428275528405 0.6992389299864537 0.0
0.9657777897300287 0.8588269742066746 0.0
1.025947476617909 0.7556651119714124 0.0
0.1090829970454354 0.3226173037985549 0.0
0.4836644525169279 0.7663103281018557 0.0
0.6910856326166581 0.777867529208468 0.0
0.6694391877434097 0.5946719355048008 0.0
0.2954883530575775 0.4501042133334518 0.0
0.6746032498128595 0.6643957640016517 0.0
1.054636636429828 0.6974583960183274 0.0
0.8939255235163368 0.7470597914537064 0.0
0.3749741568555516 0.6190655430398917 0.0
1.204101441114554 0.6801433534918062 0.0
0.6130053345415899 0.6785345531932346 0.0
0.7679719108452487 0.8562682874000032 0.0
0.9710820219997449 0.8008372590855476 0.0
0.1608022352294362 0.4242591696906621 0.0
0.2865399820604418 0.5141369963640697 0.0
0.1962258775846918 0.4008383427744516 0.0
0.6210920174972845 0.5516143721732873 0.0
0.4843009180093644 0.6583977883024127 0.0
0.5695029195102991 0.8267073580550881 0.0
0.9562891163300477 0.7436031251145003 0.0
0.4174190173896447 0.5044019081507806 0.0
0.410860431802698 0.5535781448116232 0.0
0.8709320861791604 0.9002602580953145 0.0
0.427354757192076 0.7399041791280969 0.0
0.7107884943357746 0.7172753954970394 0.0
1.030382288537246 0.8267335242583146 0.0
0.7737440530215844 0.7115751739064536 0.0
0.8042035044852396 0.9123190309183211 0.0
0.0480920891272324 0.2181807374272496 0.0
0.3695079235280397 0.6886893012630373 0.0
0.773516204411121 0.7830673827025234 0.0
0.302776671534508 0.6210168062901616 0.0
0.7150573728414059 0.6149413270404035 0.0
0.5863276441271683 0.769748656022605 0.0
1.143752049005473 0.6780480059671409 0.0
0.6477132714923303 0.7318578097016951 0.0
0.8380052680878572 0.8531154611905379 0.0
0.5966224054445893 0.6051703156405629 0.0
0.3207240819522855 0.5772784374275386 0.0
0.3520131451607586 0.5263918604440553 0.0
0.8573528491808811 0.6709738722470224 0.0
0.1797236573643203 0.460867988842514 0.0
0.5540828191547277 0.6661566975721369 0.0
1.158039843450239 0.7357536542887966 0.0
0.08638006908591334 0.286237566592474 0.0
0.790861820497242 0.6466611559014377 0.0
0.5362079962218838 0.8121454698907893 0.0
0.9405172130232713 0.6862060282668497 0.0
0.6039359324506977 0.711463595189489 0.0
0.4440093493753478 0.6096873538428137 0.0
0.5500746279087338 0.7620941994763282 0.0
0.2578504496023611 0.5739900063885278 0.0
0.502526452350101 0.6209820553182169 0.0
0.6799833858912959 0.7033681517905728 0.0
0.7183487148906835 0.7518430858176317 0.0
0.8006701240044786 0.8118713608014352 0.0
0.1304684854221093 0.3934039266496895 0.0
1.00789495394612 0.7937868725857601 0.0
0.696960396255943 0.893370944718147 0.0
0.8258315165019564 0.7538365084989149 0.0
0.8462950259502577 0.775614153529746 0.0
0.4082018839227037 0.6749460331934272 0.0
0.7025889307788081 0.8378536687159448 0.0
0.4666676520109517 0.6984557076050861 0.0
[...]
POINT_DATA 531

VECTORS Velocity float
0.0000000000000000 1.0000000000000000 0.0
0.0000000000000000 1.0000000000000000 0.0
2.6381876841079701 -0.9593324343344747 0.0
1.7797361746106741 1.0216296583117195 0.0
0.0000000000000000 1.0000000000000000 0.0
0.0000000000000000 1.0000000000000000 0.0
0.0000000000000000 1.0000000000000000 0.0
0.0000000000000000 1.0000000000000000 0.0
0.0000000000000000 1.0000000000000000 0.0
0.0000000000000000 1.0000000000000000 0.0
0.0000000000000000 1.0000000000000000 0.0
0.0000000000000000 1.0000000000000000 0.0
0.0000000000000000 1.0000000000000000 0.0
0.0000000000000000 1.0000000000000000 0.0
0.0000000000000000 1.0000000000000000 0.0
0.0000000000000000 1.0000000000000000 0.0
0.0000000000000000 1.0000000000000000 0.0
0.0000000000000000 1.0000000000000000 0.0
0.0000000000000000 1.0000000000000000 0.0
0.0000000000000000 1.0000000000000000 0.0
0.0000000000000000 0.0000000000000000 0.0
0.0000000000000000 0.0000000000000000 0.0
0.0000000000000000 0.0000000000000000 0.0
0.0000000000000000 0.0000000000000000 0.0
0.0000000000000000 0.0000000000000000 0.0
0.0000000000000000 0.0000000000000000 0.0
0.0000000000000000 0.0000000000000000 0.0
0.0000000000000000 0.0000000000000000 0.0
0.0000000000000000 0.0000000000000000 0.0
0.0000000000000000 0.0000000000000000 0.0
0.0000000000000000 0.0000000000000000 0.0
0.0000000000000000 0.0000000000000000 0.0
0.0000000000000000 0.0000000000000000 0.0
0.0000000000000000 0.0000000000000000 0.0
0.0000000000000000 0.0000000000000000 0.0
0.0000000000000000 0.0000000000000000 0.0
0.0000000000000000 0.0000000000000000 0.0
0.0000000000000000 0.0000000000000000 0.0
0.0000000000000000 0.0000000000000000 0.0
2.6783000480669905 -1.7943024043319393 0.0
3.6707578016872771 -2.3036813769411579 0.0
3.7614724221318294 -2.2273796219737032 0.0
3.7621468935138380 -1.9750562188365492 0.0
3.8518437845465625 -1.7600537334797606 0.0
3.9520604138740718 -1.4578954737368641 0.0
4.0090418073295195 -1.3012089219016103 0.0
4.1284687406761540 -1.0737459019986113 0.0
4.1027998550553910 -0.7747407157794650 0.0
4.0812609715187316 -0.5089812226229653 0.0
3.9461775483786625 -0.2162632406353033 0.0
3.7271220759662254 0.0782330440140092 0.0
3.5423247888618379 0.3075871533612539 0.0
3.1900598990018119 0.5507539511544148 0.0
2.5805451396825561 1.0892323881031758 0.0
1.7539172953312709 0.9447211943221443 0.0
0.0000000000000000 0.0000000000000000 0.0
0.0000000000000000 0.0000000000000000 0.0
0.0000000000000000 0.0000000000000000 0.0
0.0000000000000000 0.0000000000000000 0.0
0.0000000000000000 0.0000000000000000 0.0
0.0000000000000000 0.0000000000000000 0.0
0.0000000000000000 0.0000000000000000 0.0
0.0000000000000000 0.0000000000000000 0.0
0.0000000000000000 0.0000000000000000 0.0
0.0000000000000000 0.0000000000000000 0.0
0.0000000000000000 0.0000000000000000 0.0
0.0000000000000000 0.0000000000000000 0.0
0.0000000000000000 0.0000000000000000 0.0
0.0000000000000000 0.0000000000000000 0.0
0.0000000000000000 0.0000000000000000 0.0
0.0000000000000000 0.0000000000000000 0.0
0.0000000000000000 0.0000000000000000 0.0
0.0000000000000000 0.0000000000000000 0.0
0.0000000000000000 0.0000000000000000 0.0
0.0000000000000000 0.0000000000000000 0.0
0.0000000000000000 0.0000000000000000 0.0
0.0000000000000000 0.0000000000000000 0.0
0.0000000000000000 0.0000000000000000 0.0
0.0000000000000000 0.0000000000000000 0.0
0.0000000000000000 0.0000000000000000 0.0
0.0000000000000000 0.0000000000000000 0.0
0.0000000000000000 0.0000000000000000 0.0
0.0000000000000000 0.0000000000000000 0.0
3.9764486683281892 2.6018703254623912 0.0
4.2846746175584007 2.1214141345181559 0.0
3.9181432619705374 1.1670654810556553 0.0
3.8373510202380783 2.2081096705442915 0.0
3.8158769518353011 2.9213639799192657 0.0
3.4625813796018354 0.0928514348076849 0.0
3.9075572422169360 3.4788855242433878 0.0
3.7571869044587460 2.4425977616288210 0.0
3.7363211755419856 1.9246622179054198 0.0
3.5700474976274945 1.7262859546012765 0.0
2.8534966296632884 1.8159185903035004 0.0
3.3756296351212791 1.3650278841464012 0.0
3.2360021818303113 1.6716042824516206 0.0
3.1629894299757293 2.3539690321635818 0.0
3.2653529046426337 2.5048525717975507 0.0
3.0383051251310054 -0.4863668468829775 0.0
3.6097598493050951 3.8490432250519651 0.0
2.5028238037350037 2.1164466180421102 0.0
2.9254529977428545 1.4029841577740696 0.0
3.9050391978912762 0.5448311346478690 0.0
2.3779830596175473 0.3722051645150889 0.0
3.6511430588643314 1.2159948121555364 0.0
2.8000405828157096 2.6350601805132108 0.0
3.4917118570283265 4.5879933062410601 0.0
3.6287456616085865 2.6433439124649234 0.0
2.2792707190796753 1.3407160077083937 0.0
4.3258932847587808 2.3316281414116800 0.0
4.0035314679269316 2.5828557234907823 0.0
2.8591620238761943 -0.7902325760672426 0.0
4.1133148320646082 1.7790349857677323 0.0
2.5192232021046901 2.0398815295158297 0.0
2.5504878286662751 1.0633735811627554 0.0
3.9190244217966241 2.7290875362174094 0.0
2.7035281427819138 1.3441697962036037 0.0
3.8216549463440663 -0.3995302976937932 0.0
1.9861973015861529 1.4481680886845305 0.0
2.2723379672496318 0.6187415853160539 0.0
2.1218001561188164 0.0496266442862720 0.0
4.1527028379339121 2.4667581058585237 0.0
2.6148691969065658 1.7052428815805289 0.0
2.7993825198206226 2.4532166012651584 0.0
2.9347337204362343 4.7381364454446580 0.0
2.3838715471344147 1.2721659855061545 0.0
2.5248061910488264 2.8803794799428823 0.0
2.1693355021356231 1.6447568342879328 0.0
3.2855616617096985 3.5021662169865726 0.0
1.8178049165572525 1.7691113697318939 0.0
3.9609837744115839 -0.0645515993271609 0.0
3.5039928096804878 2.2805973103721295 0.0
3.8591990696189771 2.5680248294782220 0.0
3.9903839505071046 1.9743804442339594 0.0
4.0421946309502212 2.0739371556503343 0.0
3.6505455303892345 0.4631660592194304 0.0
3.0891896330198882 1.5777908807955789 0.0
1.6456565608797573 1.6781564989585120 0.0
2.2692186206749678 1.0767252944137589 0.0
2.8677632133343915 -1.0451313188293183 0.0
3.7121146056073187 2.5565095105513707 0.0
3.8894098494180924 1.9765852843768581 0.0
1.4524660737228314 0.0801135199661800 0.0
2.0110386454407450 1.0853929300476002 0.0
3.7337768296621170 3.1703870516286239 0.0
1.1265400016619416 0.4453713328853387 0.0
1.8313779770883682 3.2599879398973570 0.0
1.4910484191370363 0.8654255110101158 0.0
3.9732281833155043 1.5511162088161501 0.0
1.8405430920018200 2.2639479657069828 0.0
1.0989295227955456 0.7323099155205675 0.0
2.1215411095707903 2.3898828467802149 0.0
2.7846474950135121 3.3821155587437537 0.0
3.3659256825396957 1.0901415167567090 0.0
3.7719431927238798 0.6598104129383043 0.0
3.5856388052391734 2.2400131340235663 0.0
3.7620261239702781 -1.1140293138808806 0.0
3.3109677351977163 1.7814677293142072 0.0
4.0300657207462152 1.7675607791841366 0.0
1.6520529225467175 -0.3306639178586074 0.0
1.4113386671567925 1.5100513929848878 0.0
3.4454605158656459 2.5983367690638492 0.0
1.2847687713801821 1.8007217624278971 0.0
3.5981621231045926 2.7434707425300040 0.0
3.9090924284651636 1.0728637755329611 0.0
1.4828818967852442 0.7852335629987548 0.0
1.3715305492823211 1.3097792370776598 0.0
3.9102550337553863 -0.9015404746541205 0.0
1.8247610286292908 1.8425809502211761 0.0
1.5208510326836624 0.8470268530505450 0.0
1.2836738652040041 0.1592306901685969 0.0
3.7119819157633707 2.3687414710276222 0.0
3.9580793710102204 0.1757927295043909 0.0
3.1705126971104081 -0.2883468568086448 0.0
1.5934205910858465 3.1018870565378269 0.0
1.2020121953903811 1.0205214476063482 0.0
4.1097170785675052 2.1370756764905301 0.0
1.3125945803987953 0.7945813026267240 0.0
1.5295526050791219 2.7802719507717941 0.0
3.6575678607329158 2.0863081643603825 0.0
1.3438952171766541 -0.2644276747897592 0.0
3.3643859406447469 0.7990258875583773 0.0
3.1592140210400541 2.5012252801821635 0.0
2.6861495053580877 -1.4070905052670084 0.0
4.0700933698046926 2.6030082829343431 0.0
3.4360893203171128 1.9429391027930338 0.0
3.8163836024472362 0.2328924247812534 0.0
2.0000988439760419 3.0559946648288019 0.0
3.6263500345029800 3.6739932931491270 0.0
2.4430790300527110 4.0337919079571014 0.0
0.8458371744105042 0.8033497103824692 0.0
3.7549735035576006 2.5544653048001038 0.0
1.0788567995869487 0.5702392078449746 0.0
2.8990178262197825 0.2610500638212099 0.0
2.1185729873414387 2.2091184688421670 0.0
3.5926437242900309 2.8397634597206078 0.0
3.0841905827891840 1.0466242587201959 0.0
0.8343637107690788 0.6009149195048387 0.0
4.1440276035665207 2.0348463156456824 0.0
4.0794698506319591 -0.4209305930526344 0.0
3.5641902015475448 1.6192423320761606 0.0
2.2821138806511860 1.5770316307763395 0.0
0.7641786060420395 3.4574472038286284 0.0
0.9905409091980284 0.8525944876432563 0.0
4.2344014608691936 1.9907724082313427 0.0
1.3056561856614382 1.0420600061709591 0.0
1.2185336307699683 0.4734015439979284 0.0
3.1468318996407532 1.8628049728130442 0.0
1.4108980292358340 -0.2944603024430333 0.0
4.2519357542873264 2.4396838531679643 0.0
3.7134749198016408 1.6604888862958744 0.0
3.1540378366944730 2.2136204872527556 0.0
2.8944003963483351 3.0024288248721915 0.0
3.9286287764764007 3.2636914204892600 0.0
0.9716137480750282 0.3026059557404085 0.0
1.7261906695171194 2.4100090900259761 0.0
4.0422360266094115 2.5491810937063324 0.0
3.6902670396631585 -1.3947781110319959 0.0
1.2131526761949329 3.3076046461541533 0.0
1.1686163696905294 0.4763708825689716 0.0
0.9613931864183505 0.3837087680919180 0.0
0.9210029553272454 0.0551054463922832 0.0
4.1043503433381590 2.4639345179514462 0.0
3.8284584007452387 2.8485164965331364 0.0
2.7718798676458807 1.6352676811398636 0.0
1.0307764909044521 1.4847856693457915 0.0
3.9434352702319133 2.6498059781188670 0.0
4.1435320629595189 2.3452590281278876 0.0
4.2923166699225037 2.1876947989619184 0.0
4.0713031441659426 1.9031673935299338 0.0
1.6335625722396638 2.3202342904052715 0.0
3.8036462132773172 -0.1379897510261446 0.0
1.2296228142118570 0.6170036488600771 0.0
3.8696832865749871 1.5217179564334846 0.0
3.9494489626176663 1.4015398009118158 0.0
2.5628312189154099 1.7619329668422818 0.0
3.0924546937469235 1.5123734009507619 0.0
3.0771589642700445 2.0944356463161746 0.0
3.0540709116201930 1.9358836338031142 0.0
3.3534822769799093 1.7523953199689990 0.0
4.0041175593988809 2.2583179691450388 0.0
1.0698676237514115 0.1497958935147292 0.0
2.8651658920328655 2.1250143511739106 0.0
2.4422586910920616 0.8520894864431973 0.0
2.7476492656623330 2.0004276060064328 0.0
2.4604638000608330 -0.0319491898041188 0.0
4.1185518639343961 -0.7262481506220220 0.0
0.9397649798542762 0.9566893275615189 0.0
2.3130003513724158 -1.0760993783820043 0.0
4.0509729501810146 2.5883528468336969 0.0
2.8348498753896010 1.4254724226937321 0.0
3.1145715815086903 1.8388359304681141 0.0
3.4917572037523290 3.9779154463960187 0.0
0.5251237288404852 1.6423778737518295 0.0
3.7420261177866032 2.7470092362286307 0.0
1.5479964815207163 1.8407220558057991 0.0
2.9228415236201486 -0.6909330332985729 0.0
3.7903132388448126 0.8278343285895313 0.0
3.6098768152034313 2.4687559164778685 0.0
0.6371673587135515 0.5049290848529207 0.0
1.2009179246607458 2.2396450087105508 0.0
3.1055507627123302 2.7527932635296350 0.0
1.7180382889735548 2.9227513054041725 0.0
1.0174340187489270 1.8906971372533907 0.0
0.8167460816921909 1.5832312974755456 0.0
1.6637252300724834 3.0813954833693762 0.0
1.4437798239993229 1.1755695101907804 0.0
2.1903023843096969 -1.4149065331461834 0.0
2.1229899500934972 1.5817340201278576 0.0
0.6719084463597490 0.2951007715654022 0.0
0.7640133849301749 0.5790509206670301 0.0
3.9190217207060556 3.4628192228334762 0.0
1.2677281499722459 -0.0770133761717645 0.0
3.3433332470764543 0.8369204901162424 0.0
4.0393772508015964 -0.1415619063729484 0.0
3.8792173513097534 2.3950280245785271 0.0
1.1250736657162903 3.3292141547563663 0.0
2.5550442619644937 0.6940460549392897 0.0
0.6010711338828497 0.3620828450624453 0.0
3.4759481353310528 -0.4594797458726992 0.0
3.6823740561176308 2.6504728360612573 0.0
0.7614357222497100 -0.0135653084288666 0.0
2.6083969971917114 -0.2547785701238489 0.0
2.6722685601053118 1.4347234402064459 0.0
3.6937751037099886 -1.7320951992787910 0.0
0.8143881459090350 0.1067289831161224 0.0
2.4457198951097840 1.5462651985339084 0.0
2.8541284063091084 2.4154561005829729 0.0
2.2191725222578436 1.9575448732573335 0.0
3.9023097567399052 2.5342785103791532 0.0
3.7778580631162684 1.9211043611668490 0.0
2.5174640215698632 1.0994063921777850 0.0
3.7089182844380182 3.7866004335723984 0.0
4.1798173506382348 2.0977112933010269 0.0
0.9389678118710560 0.5965429630751858 0.0
3.1438367389506312 3.2366240283023968 0.0
2.7231912551152777 1.6616055478834677 0.0
4.2153934580345860 2.1842251871723497 0.0
4.1370302883374723 1.9999896627626486 0.0
3.0928733130920607 2.1911761779980043 0.0
3.7299564458576038 2.5761253250174425 0.0
1.2613973176343580 -0.7693971474252299 0.0
3.3267330812326734 0.6494904934776888 0.0
3.9612052667904867 0.1611491387545901 0.0
1.6698260364907478 4.0683858399594302 0.0
2.2541425230078627 1.8690212133438919 0.0
0.7086606414206055 0.6018611274952660 0.0
3.9877933384483919 2.5939628389108673 0.0
4.2797308118905075 2.1281158514366165 0.0
3.9180722885336698 1.1804278396723931 0.0
3.8170723808539502 2.1960817337613165 0.0
3.8211708205020072 2.9108487153658089 0.0
3.4630530978045813 0.0993035065955853 0.0
3.9095769961773446 3.4748514030722029 0.0
3.7818753290986997 2.4562546309838620 0.0
3.7134412660128691 1.9332994601087037 0.0
3.5973661402871406 1.7428982974961140 0.0
2.8294338345365397 1.7958494509638916 0.0
3.3968261400729571 1.3796157424141779 0.0
3.2062836740515848 1.6597893613344747 0.0
3.1514901454718949 2.3335395779549954 0.0
3.2867903494151016 2.5011832800009652 0.0
3.0384111254626491 -0.4860483990486879 0.0
3.6097338947284907 3.8491754804776885 0.0
2.5281769946293440 2.1247017480071078 0.0
2.8985335354697370 1.3975250249275699 0.0
3.8986080705642627 0.5532252258063893 0.0
2.3871746802986231 0.3787958830122495 0.0
3.6360100293718198 1.2231602445319136 0.0
2.7986967607351323 2.6276424356458805 0.0
3.4915984198105967 4.5881016735366291 0.0
3.6354147957351772 2.6406780734675648 0.0
2.2521526198717181 1.3248933247409460 0.0
4.3257415658168501 2.3343770078573316 0.0
4.0007740696350149 2.5754170153934783 0.0
2.8590940191017746 -0.7903769727907849 0.0
4.1106797809672626 1.7940070197675391 0.0
2.5122573272169015 2.0272715392948166 0.0
2.5769997051427551 1.0758957282229427 0.0
3.9276942003015285 2.7154876438000697 0.0
2.7335659413473556 1.3598451798801430 0.0
3.8213629439082371 -0.3977651328910478 0.0
1.9671380885215626 1.4318372602291574 0.0
2.2895603483360372 0.6257114609897632 0.0
2.1231240202002022 0.0516674764127330 0.0
4.1653482231219208 2.4748558033044823 0.0
2.5942931482819676 1.7044537421747701 0.0
2.8132918020700619 2.4522596394813818 0.0
2.9347149132166241 4.7381536937127571 0.0
2.3567497369389394 1.2580552717120028 0.0
2.5253314384803001 2.8800565967303760 0.0
2.1947223650481242 1.6618402366256722 0.0
3.2860470285240395 3.5015131276636371 0.0
1.8386710461556568 1.7719323515303971 0.0
3.9580018117489906 -0.0605193859222356 0.0
3.4880649204624112 2.2601925019754017 0.0
3.8798696279063427 2.5705978122262181 0.0
4.0096433214650560 1.9870290731324387 0.0
4.0202927899484067 2.0785572494111237 0.0
3.6496569491390143 0.4722249770318632 0.0
3.0752359690765352 1.5812175261290142 0.0
1.6454266121454646 1.6764728026851519 0.0
2.2431914092939769 1.0670634274579058 0.0
2.8677282113898412 -1.0452381754845002 0.0
3.7323760180029688 2.5550095130960426 0.0
3.8633069266824234 1.9698396584033406 0.0
1.4573811037925406 0.0839341936427059 0.0
2.0354629827981370 1.0979818779923975 0.0
3.7371206372917922 3.1633564609615883 0.0
1.1416701616521496 0.4516981173193401 0.0
1.8313750236535382 3.2599926508351640 0.0
1.4717079638715200 0.8529106565981501 0.0
3.9605726707228768 1.5635969132731262 0.0
1.8406247139721288 2.2642541790364574 0.0
1.0898569842701780 0.7239208329682150 0.0
2.1242866940020249 2.3888159368147872 0.0
2.7842922974051141 3.3820954395826677 0.0
3.3791292716596990 1.1034491055784834 0.0
3.7637765691554503 0.6649867321113632 0.0
3.5657968289073430 2.2229894573084565 0.0
3.7622088797532918 -1.1142601183860095 0.0
3.2819457488768853 1.7674273090951471 0.0
4.0414513939789201 1.7817771188026263 0.0
1.6517526603791601 -0.3307237402486972 0.0
1.4286266239810763 1.5170663123520358 0.0
3.4426496529924040 2.5830394878577838 0.0
1.2969569792322839 1.8013933877252688 0.0
3.6119465589079840 2.7361581037045517 0.0
3.8995912354961861 1.0844973945705241 0.0
1.4623959347656434 0.7752038120139144 0.0
1.3677575547447871 1.3033457593908475 0.0
3.9105342115408921 -0.9013571664214873 0.0
1.8250135406527412 1.8428481026149317 0.0
1.5058265255805861 0.8444490377839108 0.0
1.2929144127728365 0.1633688310942445 0.0
3.6968556365670584 2.3524805222943987 0.0
3.9537187988631231 0.1790098154717314 0.0
3.1710937583226615 -0.2850380551203118 0.0
1.5934210110693763 3.1018862142565404 0.0
1.1855532066261352 1.0059714076994186 0.0
4.0906033975768334 2.1325187171181805 0.0
1.3328603655396498 0.8063860738033012 0.0
1.5292519955774826 2.7801340997594655 0.0
3.6854584891788695 2.1020864918528241 0.0
1.3438570165956176 -0.2639404510143869 0.0
3.3707866671876094 0.8107454290734465 0.0
3.1580989943929483 2.4888677451963255 0.0
2.6861477739900286 -1.4071007959683719 0.0
4.0820206468933549 2.6080322828763349 0.0
3.4095365822901900 1.9431727894385233 0.0
3.8136493742556317 0.2392811023443308 0.0
2.0000773667664880 3.0560663704571258 0.0
3.6270211214400572 3.6729090314461033 0.0
2.4430038247891912 4.0338162546744858 0.0
0.8591870193875537 0.8140064485783369 0.0
3.7514853433738220 2.5365018419486338 0.0
1.0617315955921542 0.5614005563870644 0.0
2.9034850904771385 0.2680003516978833 0.0
2.1264919918820437 2.2086679535711484 0.0
3.6028700865282226 2.8339124579889936 0.0
3.0747202449162523 1.0503307828584227 0.0
0.8243073524434181 0.5923681374563119 0.0
4.1613436760938010 2.0468803455725229 0.0
4.0784253026367923 -0.4195229060133677 0.0
3.5878287504385233 1.6341268981258408 0.0
2.2712019376780450 1.5775876741192052 0.0
0.7641786060420395 3.4574472038286288 0.0
0.9843261932838147 0.8450759707145005 0.0
4.2280089823905502 2.0011912886122709 0.0
1.3045997912411860 1.0394479459901489 0.0
1.2385338029589630 0.4822307551944153 0.0
3.1179326987339318 1.8460106863876300 0.0
1.4107582930303264 -0.2944883614963907 0.0
4.2496703768448167 2.4402233915256168 0.0
3.6932158986053194 1.6677080840381533 0.0
3.1820350399297270 2.2263652714228668 0.0
2.8939341606478459 2.9971420131319388 0.0
3.9330529176012892 3.2606468918597904 0.0
0.9838472257103130 0.3069926674736079 0.0
1.7262046279041663 2.4101780036793938 0.0
4.0465568007563535 2.5423556662820279 0.0
3.6903299890289931 -1.3949574890950258 0.0
1.2131529524656057 3.3076046507830075 0.0
1.1856347682690085 0.4838984165927163 0.0
0.9446087193670996 0.3763022676512200 0.0
0.9276446639836446 0.0572212267636917 0.0
4.1000991805521316 2.4577069027659610 0.0
3.8361858896393195 2.8344396971827193 0.0
2.7448325035540626 1.6172018551079188 0.0
1.0309134720677402 1.4841925993482126 0.0
3.9550712036321589 2.6386717862795659 0.0
4.1594602440513864 2.3560821214342984 0.0
4.2948165358311039 2.1933575043371856 0.0
4.0546209336084713 1.9140099073850105 0.0
1.6335548713042076 2.3202490842391508 0.0
3.8026617361371637 -0.1334618659774928 0.0
1.2146251600715492 0.6113407957650920 0.0
3.8793174257601724 1.5368159995508706 0.0
3.9499643621000926 1.4180764483989479 0.0
2.5527252350726424 1.7477644934949335 0.0
3.0633422276909843 1.5055255916580188 0.0
3.0606301743574389 2.0743765862498629 0.0
3.0846515064631670 1.9537511017274816 0.0
3.3816927043080462 1.7671333121851867 0.0
3.9829047691773796 2.2510512338938891 0.0
1.0722716519765019 0.1511581071600551 0.0
2.8907508882021600 2.1260039112317992 0.0
2.4632644557832841 0.8633949779474182 0.0
2.7261596385157962 1.9811870128300548 0.0
2.4635272139938791 -0.0272937359584845 0.0
4.1184893707550811 -0.7258478666998412 0.0
0.9399850177901458 0.9567908595656969 0.0
2.3130011811265105 -1.0760966096980737 0.0