# vtk DataFile Version 3.0
LucasCarvalhoTCC Results
ASCII

DATASET POLYDATA
FIELD FieldData 1
TIME 1 1 double
7.1000000000000005

POINTS 531 float
0.02430399999999999 0.16425 0.0
0.5913384 0.481878 0.0
1.30475 0.591832 0.0
0.774126 0.951272 0.0
0.04779564148251592 0.1966194329439859 0.0
0.0726092153537953 0.2279866320496896 0.0
0.09876577335895967 0.2582426022760065 0.0
0.1262817198684718 0.2872673048853742 0.0
0.1551671626852806 0.3149288071400502 0.0
0.1854238368919928 0.3410826624766006 0.0
0.2170424591499632 0.3655716640299072 0.0
0.2499995164635996 0.3882263409476824 0.0
0.2842534387828506 0.4088665906889567 0.0
0.3197403359862048 0.4273050841371062 0.0
0.3563695945475563 0.4433531534921038 0.0
0.3940201673622058 0.4568300511916809 0.0
0.4325386107291805 0.4675762214989666 0.0
0.4717406913237268 0.4754709112408955 0.0
0.5114182513144845 0.480453442081874 0.0
0.5513531678859215 0.4825464217651069 0.0
0.6182637923774223 0.5096055604109244 0.0
0.647389101376845 0.5350126187545199 0.0
0.6784752958296183 0.5579802184492302 0.0
0.7112421079139344 0.5784810076698811 0.0
0.7454110434104482 0.5965507527581431 0.0
0.7807301979183381 0.6122562812860965 0.0
0.8169827939052532 0.6256694297140926 0.0
0.853985522124928 0.6368498290413532 0.0
0.8915818964261243 0.6458353363890481 0.0
0.9296339776508085 0.6526379336565091 0.0
0.9680139759519513 0.6572432424840469 0.0
1.006596418266983 0.659612648128084 0.0
1.045251165872634 0.6596877658251245 0.0
1.083837680945672 0.657397570658483 0.0
1.122201320191055 0.6526688455666412 0.0
1.160173053543044 0.6454405726452737 0.0
1.197574286953346 0.6356824063786186 0.0
1.23422961949795 0.6234159704281613 0.0
1.26998758503999 0.6087366500005643 0.0
1.285086682927543 0.6256533177085738 0.0
1.263669745906668 0.6583917156018083 0.0
1.240480125919214 0.6898988493917133 0.0
1.215532715641304 0.7200329197235763 0.0
1.188869833862339 0.7486599839005789 0.0
1.160556835593143 0.7756559317113654 0.0
1.130680194163798 0.8009104211039757 0.0
1.099347083827048 0.8243335727704395 0.0
1.066684425336412 0.8458643604021228 0.0
1.03283497048792 0.8654772531176074 0.0
0.9979492572630678 0.8831824104874066 0.0
0.9621749986495024 0.8990166556695112 0.0
0.9256475378616493 0.9130272060048579 0.0
0.8884846540507749 0.9252538945090274 0.0
0.8507866567183312 0.935715378288671 0.0
0.8126405010322847 0.9444016349017643 0.0
0.7365055179612304 0.9396161853607135 0.0
0.699310855231089 0.9266666891603924 0.0
0.6626179171945521 0.9123577070090924 0.0
0.6264901449910028 0.8966765244755546 0.0
0.5909789825447118 0.8796450886595113 0.0
0.556124897941028 0.8613059841617771 0.0
0.5219601957009091 0.8417124664434518 0.0
0.4885110616878257 0.8209207172498462 0.0
0.4558007060429968 0.7989848675704875 0.0
0.4238520247653796 0.775953675763176 0.0
0.3926900138417566 0.7518687036338616 0.0
0.3623437622133722 0.7267636709390595 0.0
0.3328479550295906 0.7006647540504483 0.0
0.3042438201183181 0.6735915983461908 0.0
0.2765795358619001 0.6455588748284606 0.0
0.2499101143933102 0.6165781952942546 0.0
0.2242967982692083 0.5866601984136335 0.0
0.1998060807431611 0.5558166834807132 0.0
0.1765083808984156 0.5240625786010467 0.0
0.154476512720734 0.491417660368959 0.0
0.133784033184808 0.457907916333494 0.0
0.114503564227142 0.4235664945146766 0.0
0.09670517293008124 0.3884342245925089 0.0
0.0804548910754031 0.3525597611689231 0.0
0.06581337946329963 0.3159993090744527 0.0
0.05283482490365372 0.2788161107032479 0.0
0.0415660226296666 0.2410796291505872 0.0
0.03204569406625649 0.2028646095712164 0.0
0.5272009874003867 0.6419624505772817 0.0
0.7421848286576707 0.7716726266421574 0.0
0.8789503364783713 0.7829234141383637 0.0
0.6149390992905563 0.7449438030688011 0.0
0.4064556042659638 0.5942834991165423 0.0
0.9875021850865396 0.7666507358101158 0.0
0.3188065960661005 0.539594034984892 0.0
0.61365100263957 0.6399487878797632 0.0
0.8049090660915541 0.8464379870891131 0.0
0.7099820328572021 0.6828840522539854 0.0
0.5239467234991928 0.7406922291088611 0.0
0.8154056325591208 0.7211774015928547 0.0
0.6676178829014909 0.8152713180209475 0.0
0.4416080359619968 0.674360953773491 0.0
0.489443615375965 0.5654986742123573 0.0
1.076665773779852 0.7387182918829318 0.0
0.250390543112057 0.4877450112830265 0.0
0.5736819937919005 0.5790366884881447 0.0
0.7263706755366466 0.8615301097563091 0.0
0.940143307772686 0.8233944909985552 0.0
0.927065543677544 0.7236459161626674 0.0
0.8744389806957806 0.8609114380468947 0.0
0.336888362650554 0.6081958070931937 0.0
0.2030757334857187 0.4383942902513459 0.0
0.3861483329720647 0.5255533415902591 0.0
0.5621001921466506 0.7923778419149285 0.0
0.6822897332295245 0.7428043323059399 0.0
0.5764061681675353 0.6881266532454204 0.0
1.129195449682892 0.7163224153578123 0.0
0.8157794419559141 0.7831214907157077 0.0
0.3806644703311284 0.6554275822782399 0.0
0.7695737871052837 0.669593045341503 0.0
0.4699375460410929 0.6217118815516158 0.0
0.6830867370872363 0.630350317562806 0.0
1.040416897214502 0.7929392348941093 0.0
0.4604428393605979 0.7321209818568342 0.0
0.8729552856459739 0.7015083313474691 0.0
1.017010765275644 0.7166925631396708 0.0
0.6458785458483771 0.6946878992565794 0.0
0.7733575582969163 0.8941098392103913 0.0
0.4457537579383052 0.5273353624588528 0.0
0.163830623786951 0.3903175742448083 0.0
0.6095823984734953 0.8256600013628639 0.0
0.2618074352614998 0.5435604438425528 0.0
0.6287880420949764 0.5875838132975476 0.0
0.3100402147222924 0.4835410260423071 0.0
0.5422177893302824 0.5343158927797464 0.0
0.9964262112680041 0.8213447667248638 0.0
0.4971609598823845 0.6906859160718212 0.0
0.5740517260168769 0.633982031239429 0.0
0.7423299505107201 0.7218768583704394 0.0
0.767147744476665 0.819658485932403 0.0
0.9427329070375209 0.7774595780066723 0.0
0.8375285793481674 0.8869398470561132 0.0
0.2879426409425497 0.5872676364411625 0.0
0.6797562629663748 0.8647676397847667 0.0
1.171674168522591 0.6949964056806914 0.0
0.5261010885606964 0.6055079299963303 0.0
0.7081534744446967 0.8078672678314597 0.0
0.9681672688626206 0.705385299758921 0.0
0.7364069054947873 0.6432919177737106 0.0
0.363826821075015 0.5678764295233764 0.0
0.826170216989844 0.6605791783255148 0.0
0.1284439337099834 0.3602715082199688 0.0
0.518140828090112 0.783905985497134 0.0
0.8452908336054504 0.8167586152211004 0.0
0.2015204468558833 0.492088055688788 0.0
0.4005883523205732 0.7121294304856254 0.0
0.3551392316798573 0.4864133323669936 0.0
0.2501727034998737 0.4443035857235296 0.0
0.857938396055507 0.7390317828783199 0.0
0.9245301815433076 0.8668102132501951 0.0
0.5702050292970205 0.7323438487067678 0.0
1.111607633075016 0.759318252473435 0.0
0.6317193755596126 0.7853891653733797 0.0
0.7921381265818805 0.7497379312370454 0.0
1.088942426366261 0.7015435214091311 0.0
0.5818207607488639 0.5352340257544296 0.0
0.4203532416309484 0.6369649631143086 0.0
0.4854818714173937 0.5131439318707094 0.0
0.4475429831528036 0.5690430472086269 0.0
0.8968753306595262 0.8225547516037004 0.0
0.6339557898063448 0.8543470494763272 0.0
0.3416564411796998 0.6516449771136894 0.0
1.082970576264455 0.7856036465430698 0.0
0.2255204648032354 0.5229464838393291 0.0
0.7335043541589261 0.9012744999286941 0.0
0.9097052989734319 0.6921177492721042 0.0
0.5363428275528405 0.6992389299864537 0.0
0.9657777897300287 0.8588269742066746 0.0
1.025947476617909 0.7556651119714124 0.0
0.1090829970454354 0.3226173037985549 0.0
0.4836644525169279 0.7663103281018557 0.0
0.6910856326166581 0.777867529208468 0.0
0.6694391877434097 0.5946719355048008 0.0
0.2954883530575775 0.4501042133334518 0.0
0.6746032498128595 0.6643957640016517 0.0
1.054636636429828 0.6974583960183274 0.0
0.8939255235163368 0.7470597914537064 0.0
0.3749741568555516 0.6190655430398917 0.0
1.204101441114554 0.6801433534918062 0.0
0.6130053345415899 0.6785345531932346 0.0
0.7679719108452487 0.8562682874000032 0.0
0.9710820219997449 0.8008372590855476 0.0
0.1608022352294362 0.4242591696906621 0.0
0.2865399820604418 0.5141369963640697 0.0
0.1962258775846918 0.4008383427744516 0.0
0.6210920174972845 0.5516143721732873 0.0
0.4843009180093644 0.6583977883024127 0.0
0.5695029195102991 0.8267073580550881 0.0
0.9562891163300477 0.7436031251145003 0.0
0.4174190173896447 0.5044019081507806 0.0
0.410860431802698 0.5535781448116232 0.0
0.8709320861791604 0.9002602580953145 0.0
0.427354757192076 0.7399041791280969 0.0
0.7107884943357746 0.7172753954970394 0.0
1.030382288537246 0.8267335242583146 0.0
0.7737440530215844 0.7115751739064536 0.0
0.8042035044852396 0.9123190309183211 0.0
0.0480920891272324 0.2181807374272496 0.0
0.3695079235280397 0.6886893012630373 0.0
0.773516204411121 0.7830673827025234 0.0
0.302776671534508 0.6210168062901616 0.0
0.7150573728414059 0.6149413270404035 0.0
0.5863276441271683 0.769748656022605 0.0
1.143752049005473 0.6780480059671409 0.0
0.6477132714923303 0.7318578097016951 0.0
0.8380052680878572 0.8531154611905379 0.0
0.5966224054445893 0.6051703156405629 0.0
0.3207240819522855 0.5772784374275386 0.0
0.3520131451607586 0.5263918604440553 0.0
0.8573528491808811 0.6709738722470224 0.0
0.1797236573643203 0.460867988842514 0.0
0.5540828191547277 0.6661566975721369 0.0
1.158039843450239 0.7357536542887966 0.0
0.08638006908591334 0.286237566592474 0.0
0.790861820497242 0.6466611559014377 0.0
0.5362079962218838 0.8121454698907893 0.0
0.9405172130232713 0.6862060282668497 0.0
0.6039359324506977 0.711463595189489 0.0
0.4440093493753478 0.6096873538428137 0.0
0.5500746279087338 0.7620941994763282 0.0
0.2578504496023611 0.5739900063885278 0.0
0.502526452350101 0.6209820553182169 0.0
0.6799833858912959 0.7033681517905728 0.0
0.7183487148906835 0.7518430858176317 0.0
0.8006701240044786 0.8118713608014352 0.0
0.1304684854221093 0.3934039266496895 0.0
1.00789495394612 0.7937868725857601 0.0
0.696960396255943 0.893370944718147 0.0
0.8258315165019564 0.7538365084989149 0.0
0.8462950259502577 0.775614153529746 0.0
0.4082018839227037 0.6749460331934272 0.0
0.7025889307788081 0.8378536687159448 0.0
0.4666676520109517 0.6984557076050861 0.0
[...]
POINT_DATA 531

VECTORS Velocity float
0.0000000000000000 1.0000000000000000 0.0
0.0000000000000000 1.0000000000000000 0.0
2.6381951307416913 -0.9593262430264744 0.0
1.7931897196546425 1.0228281253279896 0.0
0.0000000000000000 1.0000000000000000 0.0
0.0000000000000000 1.0000000000000000 0.0
0.0000000000000000 1.0000000000000000 0.0
0.0000000000000000 1.0000000000000000 0.0
0.0000000000000000 1.0000000000000000 0.0
0.0000000000000000 1.0000000000000000 0.0
0.0000000000000000 1.0000000000000000 0.0
0.0000000000000000 1.0000000000000000 0.0
0.0000000000000000 1.0000000000000000 0.0
0.0000000000000000 1.0000000000000000 0.0
0.0000000000000000 1.0000000000000000 0.0
0.0000000000000000 1.0000000000000000 0.0
0.0000000000000000 1.0000000000000000 0.0
0.0000000000000000 1.0000000000000000 0.0
0.0000000000000000 1.0000000000000000 0.0
0.0000000000000000 1.0000000000000000 0.0
0.0000000000000000 0.0000000000000000 0.0
0.0000000000000000 0.0000000000000000 0.0
0.0000000000000000 0.0000000000000000 0.0
0.0000000000000000 0.0000000000000000 0.0
0.0000000000000000 0.0000000000000000 0.0
0.0000000000000000 0.0000000000000000 0.0
0.0000000000000000 0.0000000000000000 0.0
0.0000000000000000 0.0000000000000000 0.0
0.0000000000000000 0.0000000000000000 0.0
0.0000000000000000 0.0000000000000000 0.0
0.0000000000000000 0.0000000000000000 0.0
0.0000000000000000 0.0000000000000000 0.0
0.0000000000000000 0.0000000000000000 0.0
0.0000000000000000 0.0000000000000000 0.0
0.0000000000000000 0.0000000000000000 0.0
0.0000000000000000 0.0000000000000000 0.0
0.0000000000000000 0.0000000000000000 0.0
0.0000000000000000 0.0000000000000000 0.0
0.0000000000000000 0.0000000000000000 0.0
2.6783030788678377 -1.7943085426045333 0.0
3.6706600950698660 -2.3036115047010659 0.0
3.7614611959126560 -2.2270270589454104 0.0
3.7625029903527074 -1.9756968263491850 0.0
3.8568379628438256 -1.7643850651023054 0.0
3.9680536149770509 -1.4701280115801838 0.0
4.0363461269712264 -1.3250103439424550 0.0
4.1785356331957848 -1.1079014627866792 0.0
4.1886071219584924 -0.8257354636333653 0.0
4.1857044576979154 -0.5659733452509461 0.0
4.0634516543495680 -0.2718789369993795 0.0
3.8451885120587792 0.0301487007162661 0.0
3.6500772893576667 0.2654976704896037 0.0
3.2742651655465811 0.5227347854870762 0.0
2.6292757094764609 1.0860896077627515 0.0
1.7664867546601994 0.9318018950633125 0.0
0.0000000000000000 0.0000000000000000 0.0
0.0000000000000000 0.0000000000000000 0.0
0.0000000000000000 0.0000000000000000 0.0
0.0000000000000000 0.0000000000000000 0.0
0.0000000000000000 0.0000000000000000 0.0
0.0000000000000000 0.0000000000000000 0.0
0.0000000000000000 0.0000000000000000 0.0
0.0000000000000000 0.0000000000000000 0.0
0.0000000000000000 0.0000000000000000 0.0
0.0000000000000000 0.0000000000000000 0.0
0.0000000000000000 0.0000000000000000 0.0
0.0000000000000000 0.0000000000000000 0.0
0.0000000000000000 0.0000000000000000 0.0
0.0000000000000000 0.0000000000000000 0.0
0.0000000000000000 0.0000000000000000 0.0
0.0000000000000000 0.0000000000000000 0.0
0.0000000000000000 0.0000000000000000 0.0
0.0000000000000000 0.0000000000000000 0.0
0.0000000000000000 0.0000000000000000 0.0
0.0000000000000000 0.0000000000000000 0.0
0.0000000000000000 0.0000000000000000 0.0
0.0000000000000000 0.0000000000000000 0.0
0.0000000000000000 0.0000000000000000 0.0
0.0000000000000000 0.0000000000000000 0.0
0.0000000000000000 0.0000000000000000 0.0
0.0000000000000000 0.0000000000000000 0.0
0.0000000000000000 0.0000000000000000 0.0
0.0000000000000000 0.0000000000000000 0.0
4.0097542114384748 2.6014924361567200 0.0
4.2966143593782533 2.1844348784074041 0.0
3.9003846944205445 1.1948797929633210 0.0
3.8295275609520507 2.2037997525635866 0.0
3.8215139970199323 2.9195771929924610 0.0
3.4106263646281914 0.0604002032050455 0.0
3.9090217824914206 3.4757402571328604 0.0
3.7917813776345390 2.4479926194981827 0.0
3.7668343680165250 1.9872773587988883 0.0
3.5817192958241426 1.7493634174261590 0.0
2.8317530881147435 1.7883349399735868 0.0
3.3298229257808569 1.3919323882388859 0.0
3.2063426772310550 1.6709627861103999 0.0
3.1598982475784325 2.3398233912110618 0.0
3.2706397643789602 2.5133186919421626 0.0
3.0117063425953456 -0.5077922138995197 0.0
3.6099429676365493 3.8487473662026908 0.0
2.5055164387970148 2.1143953514279801 0.0
2.9075213643202078 1.4141832009432391 0.0
3.9431292619834157 0.5329722504447294 0.0
2.2893143481901466 0.3611570647799668 0.0
3.7130427698663122 1.2395852875199795 0.0
2.7983938242957351 2.6293224039320031 0.0
3.4916501071275934 4.5880362270273691 0.0
3.6331171142214318 2.6432472084675238 0.0
2.2417961038066490 1.3176951866789202 0.0
4.3412964298896171 2.3662726571039636 0.0
4.0284166891963400 2.5798435559279387 0.0
2.8478534607809487 -0.7950519536766658 0.0
4.1171856149979336 1.8403667870216849 0.0
2.5146047462871155 2.0305233461794105 0.0
2.5321618021698447 1.0742503485551234 0.0
3.9386936484637345 2.7319607750016579 0.0
2.7169152926359432 1.3474628296422213 0.0
3.8245025212365120 -0.4496507339806369 0.0
1.9670769757234945 1.4295814608821193 0.0
2.1976006892050877 0.6093925850573239 0.0
2.0652583466888417 0.0334100137176972 0.0
4.1828156691853318 2.4848146879232584 0.0
2.6164339272903749 1.7233906350153037 0.0
2.8029808002683620 2.4563652651018932 0.0
2.9347179325495594 4.7381468894350824 0.0
2.3476931736386883 1.2532700522213791 0.0
2.5249525913592779 2.8795015487108935 0.0
2.1738450225491270 1.6410392097286217 0.0
3.2866380289525243 3.5017574002481235 0.0
1.8114796237649016 1.7688610586325590 0.0
4.0047152831526711 -0.1144669663115735 0.0
3.5040369579758623 2.2603092882035396 0.0
3.8969144708593273 2.5708496311725515 0.0
3.9928901299224138 2.0241496104324641 0.0
4.0604550577212448 2.1359113674577905 0.0
3.6135545940466751 0.4453340491262588 0.0
3.1422272379488900 1.6066025646572963 0.0
1.6449512788002612 1.6764034797343510 0.0
2.2370993316562822 1.0691208565920038 0.0
2.8643162919464307 -1.0496261618080014 0.0
3.7352470495888079 2.5620458593625268 0.0
3.8811911918155890 2.0021466257981975 0.0
1.3909462648439814 0.0693833612437885 0.0
2.0111280042236874 1.0983930577103429 0.0
3.7360327096443178 3.1669959255965705 0.0
1.0989178180135588 0.4416098163952302 0.0
1.8313765366633272 3.2599910400470140 0.0
1.4679139861245378 0.8482175254607285 0.0
4.0028944611791344 1.6004681340996196 0.0
1.8405819373507248 2.2640266356780367 0.0
1.0915291488353751 0.7247637184662553 0.0
2.1240066129232993 2.3894089705075587 0.0
2.7846004233698656 3.3820375954646713 0.0
3.3023792580358622 1.1042059589383133 0.0
3.8620756673853665 0.6462624300850549 0.0
3.5784416175348990 2.2213134828782883 0.0
3.7615332373530195 -1.1342031458674515 0.0
3.2801702745025656 1.7706565205697544 0.0
4.0177720830299410 1.8226494606923538 0.0
1.6345109661821997 -0.3356352643419346 0.0
1.4064569721067994 1.5075380171659045 0.0
3.4479760353623807 2.5904696228887429 0.0
1.2841017879619199 1.8027384914955495 0.0
3.6050356102571746 2.7490668168858874 0.0
3.9492632114934607 1.0942243771962239 0.0
1.4576838085092521 0.7731779919907585 0.0
1.3687269306474528 1.3048861817086428 0.0
3.9181217693085637 -0.9462110402723347 0.0
1.8248776684404711 1.8424740402680746 0.0
1.5112562766120208 0.8518212917308129 0.0
1.2256197364789514 0.1570158509343219 0.0
3.7169843414805426 2.3519325469278076 0.0
4.0590427617766940 0.1353495002355182 0.0
3.1239067218735221 -0.3270362109252123 0.0
1.5934210863354936 3.1018863650944670 0.0
1.1850456990907405 1.0033689305288200 0.0
4.1061865402491593 2.1658768429844488 0.0
1.3176959386807960 0.7949624559639918 0.0
1.5297324293532444 2.7802167831427513 0.0
3.6824069099153562 2.1026138239039573 0.0
1.3182420398454848 -0.2714129137217086 0.0
3.2920315447970410 0.8007600270082380 0.0
3.1582880410522636 2.4933351446264100 0.0
2.6857074731003818 -1.4079285205436205 0.0
4.1056181793218354 2.6153696434779454 0.0
3.4424487615839796 1.9841320736221510 0.0
3.8146219056573174 0.2029654257724655 0.0
2.0000833335640813 3.0560423596873862 0.0
3.6271823521552427 3.6727196527604122 0.0
2.4430248316507774 4.0338099408266537 0.0
0.8448468957740843 0.7999876948126879 0.0
3.7692342529926948 2.5458925084271775 0.0
1.0569712730396938 0.5588158107950434 0.0
2.8175530393874171 0.2411865173824748 0.0
2.1222669194892192 2.2106434412826039 0.0
3.5978442821755636 2.8410696669473174 0.0
3.1528671167991011 1.0500229323137047 0.0
0.8252974751048281 0.5921428486458957 0.0
4.1574207829010188 2.0732196415150534 0.0
4.1402984748736751 -0.4802705496919600 0.0
3.5451934072466424 1.6559832916052057 0.0
2.3039350825493106 1.5874637911390550 0.0
0.7641786048666085 3.4574472035069439 0.0
0.9857782204915296 0.8466173339575702 0.0
4.2485249447783335 2.0588390924541859 0.0
1.3045213706654311 1.0398964597026175 0.0
1.2238004791016504 0.4770604582571166 0.0
3.1149223239524435 1.8430664285317857 0.0
1.4047028449257981 -0.2956871810704484 0.0
4.2699927768753945 2.4580073490938794 0.0
3.7595819333534801 1.7030055412649077 0.0
3.1729383101210189 2.2117990738212119 0.0
2.8934802874965717 2.9981497847095127 0.0
3.9324575414591458 3.2621768594099971 0.0
0.9365398313782477 0.2972640109508064 0.0
1.7262047964114351 2.4100968984114881 0.0
4.0763887638994944 2.5449450683021517 0.0
3.6904835110921836 -1.4070998138727671 0.0
1.2131529114440587 3.3076045984642626 0.0
1.1526640933448200 0.4744532206576414 0.0
0.9413784885093192 0.3753782973109014 0.0
0.8764890762690654 0.0525651101470632 0.0
4.1245738762422111 2.4666972728290291 0.0
3.8389340745578178 2.8495453273246056 0.0
2.7414750572799189 1.6096914847627037 0.0
1.0306299023967156 1.4838929419769915 0.0
3.9686369607119438 2.6524838417913839 0.0
4.1677352622345323 2.3746687875417916 0.0
4.3042919498515619 2.2390460146724611 0.0
4.0948721182423569 1.9733529845575164 0.0
1.6335542055473475 2.3202447401145792 0.0
3.7996047335162411 -0.1898409711254682 0.0
1.2152875774783671 0.6139115078992780 0.0
3.8422719412541317 1.5619187886995165 0.0
3.9335761132335407 1.4427425276553967 0.0
2.5568461284460429 1.7492776746826937 0.0
3.0703243721599853 1.5247122436113678 0.0
3.0713091003979645 2.0757728597691338 0.0
3.0724087317274034 1.9399718065892859 0.0
3.3502987697028295 1.7864971586405280 0.0
3.9950004531275987 2.2722105107876778 0.0
1.0287099305387957 0.1399124335761624 0.0
2.8682903108199231 2.1275546723575465 0.0
2.3773700627449021 0.8511728409055553 0.0
2.7308162366641597 1.9786097416224080 0.0
2.3871123104562493 -0.0537536147228769 0.0
4.1605419645187194 -0.7860400331818028 0.0
0.9397601342725417 0.9564398855268778 0.0
2.3130261174378450 -1.0760388407685226 0.0
4.0924028865107154 2.5931972546545259 0.0
2.8450400774111646 1.4349474220835770 0.0
3.1407205316555529 1.8816247652125353 0.0
3.4917913332180959 3.9779331448160873 0.0
0.5212947583656916 1.6424493510774161 0.0
3.7535724578206007 2.7552204843770545 0.0
1.5513595838603573 1.8409479155969377 0.0
2.9069784715683031 -0.7067116327392776 0.0
3.7679277017783219 0.8292698702769049 0.0
3.6336702516469326 2.4725871163551290 0.0
0.6284556738819356 0.4957639277475988 0.0
1.2013248427561700 2.2394295421588990 0.0
3.1057825366045844 2.7504401076398617 0.0
1.7179514530917543 2.9227245484482784 0.0
1.0195156399270280 1.8921651665186749 0.0
0.8129958289741107 1.5837487591122168 0.0
1.6636996996670774 3.0813960932225468 0.0
1.4440769879020525 1.1855405523235436 0.0
2.1903523019361653 -1.4148422386167221 0.0
2.1108004545800383 1.5646062823957125 0.0
0.6581371637601783 0.2917558640212296 0.0
0.7643110740654273 0.5775702999531944 0.0
3.9216911130038170 3.4614379166279376 0.0
1.2592695931830231 -0.0789528495409314 0.0
3.4307852989409540 0.8317159567574908 0.0
4.1341008850254966 -0.1993300290733895 0.0
3.9129034274915422 2.4068986849583007 0.0
1.1250736244930513 3.3292141714436831 0.0
2.4664733294093413 0.6899880036760476 0.0
0.5879733769163077 0.3534652860877393 0.0
3.4507252477618682 -0.5035542753230463 0.0
3.6911572291930010 2.6423121462470149 0.0
0.7339344791290988 -0.0172606197633256 0.0
2.5637447993438953 -0.2803855692247874 0.0
2.6327375390121599 1.4168838451425561 0.0
3.6933610430929100 -1.7371074287224826 0.0
0.7793533736073699 0.1048079959497687 0.0
2.4044373610563938 1.5263609158060352 0.0
2.8552574091120748 2.4222996208970358 0.0
2.2150088690209087 1.9615980486263294 0.0
3.9238595121699817 2.5253720164828843 0.0
3.7747416615440224 1.9570406207584594 0.0
2.4790962679879982 1.1078217532969863 0.0
3.7093773953578486 3.7863896444052170 0.0
4.1914113593841016 2.1536518270068461 0.0
0.9322709809478803 0.5977207054137545 0.0
3.1439382319054041 3.2360128664999683 0.0
2.7162638012023237 1.6821301443521968 0.0
4.2222807940373430 2.2326921494919989 0.0
4.1377448808611055 2.0603642514140628 0.0
3.1125720610409227 2.1907772251586359 0.0
3.7460077162180156 2.5827219230816336 0.0
1.2603120582532596 -0.7699905114569653 0.0
3.2527558884613152 0.6417862061424715 0.0
4.0202274798134248 0.1206255634987954 0.0
1.6698185299692225 4.0683865283444662 0.0
2.2542551246212339 1.8643841398759258 0.0
0.7053889844511636 0.6015294900459300 0.0
4.0153235502012521 2.5971444819623173 0.0
4.2941565045688899 2.1884481890936001 0.0
3.9005444638579827 1.2005855094166911 0.0
3.8204852408218333 2.1984699765385574 0.0
3.8236820396225166 2.9154690336629612 0.0
3.4107799062598998 0.0623730800463760 0.0
3.9095886065042054 3.4745732311378585 0.0
3.8030253207025733 2.4535439098893081 0.0
3.7577686325636690 1.9915338743457394 0.0
3.5936457678323843 1.7571112772413131 0.0
2.8214453145271743 1.7791747773747482 0.0
3.3380308802641228 1.3988103996787116 0.0
3.1931036840789004 1.6661246991055843 0.0
3.1560025236709595 2.3309875219306773 0.0
3.2790963017898753 2.5111148113624902 0.0
3.0116880751278901 -0.5078525407645175 0.0
3.6098594161994821 3.8489298028190548 0.0
2.5164649618098847 2.1172655682876855 0.0
2.8960581608839111 1.4121368446962548 0.0
3.9413325539990409 0.5360156467965582 0.0
2.2920654475855584 0.3635924000459985 0.0
3.7076552161413323 1.2424823863760706 0.0
2.7982637137720707 2.6270125092666063 0.0
3.4916028601001816 4.5880866115593495 0.0
3.6350416645108337 2.6421901853307594 0.0
2.2296578590907696 1.3105717329626303 0.0
4.3409819784485002 2.3680080583183543 0.0
4.0276177998547800 2.5760380198419339 0.0
2.8478290218458544 -0.7951054415075358 0.0
4.1161185615872062 1.8475450870418217 0.0
2.5124757143028700 2.0259104333520623 0.0
2.5432970148882452 1.0800433156489955 0.0
3.9428495130553487 2.7254870437336343 0.0
2.7303727799085671 1.3544358811185091 0.0
3.8245899678757782 -0.4493650238664519 0.0
1.9593377639094658 1.4224126169834779 0.0
2.2036288976569574 0.6122610340496062 0.0
2.0653886544547095 0.0338920448148146 0.0
4.1884587112099316 2.4883825270899242 0.0
2.6080147623853307 1.7232136962272182 0.0
2.8077335275918403 2.4557341867732032 0.0
2.9347135034632621 4.7381527433744459 0.0
2.3355460911995651 1.2470064462212134 0.0
2.5251788858069313 2.8796382438504597 0.0
2.1850892977869112 1.6482518193916442 0.0
3.2865425701740461 3.5015283614978303 0.0
1.8198427683103626 1.7697764363908273 0.0
4.0041136594204243 -0.1133819744800558 0.0
3.4980395042785806 2.2507614438946106 0.0
3.9064824903529498 2.5711684707172031 0.0
4.0008681405637976 2.0306232801411137 0.0
4.0513768075223524 2.1386960645987010 0.0
3.6133715941642257 0.4485534923490512 0.0
3.1370056624358824 1.6081248258959080 0.0
1.6450723943520538 1.6761128588990777 0.0
2.2256748507348587 1.0650952159879381 0.0
2.8643085410383651 -1.0496567870514601 0.0
3.7442003191915392 2.5604259846516930 0.0
3.8696662487373166 1.9999130208879885 0.0
1.3921296028122143 0.0706120991376128 0.0
2.0218307461183351 1.1042326158909208 0.0
3.7372176488825701 3.1645669582296514 0.0
1.1047790588440873 0.4443020435981704 0.0
1.8313760709136799 3.2599920024786888 0.0
1.4593582930692199 0.8425413717485110 0.0
3.9982361539491902 1.6060329406758391 0.0
1.8406096140093138 2.2641785598938986 0.0
1.0882487916390939 0.7214903590904482 0.0
2.1245755233626924 2.3889881179039798 0.0
2.7844068027998077 3.3820568901757802 0.0
3.3071687059180150 1.1101114303048567 0.0
3.8595546612873370 0.6481506419831448 0.0
3.5698670472312437 2.2134807076560579 0.0
3.7615845290546179 -1.1343118435450135 0.0
3.2671456421307341 1.7645472497900636 0.0
4.0221851013338892 1.8297204116553172 0.0
1.6343940611952310 -0.3356978477712701 0.0
1.4136540866144165 1.5102071039577636 0.0
3.4474710043073333 2.5843471953514330 0.0
1.2884303610311767 1.8028104385387886 0.0
3.6101937403618911 2.7457813753080096 0.0
3.9462457739023526 1.0989274348062781 0.0
1.4485611862788554 0.7687899339023480 0.0
1.3677002054100722 1.3028192824773437 0.0
3.9182481724418126 -0.9462965514600655 0.0
1.8249811786368748 1.8426816046860179 0.0
1.5049371998298546 0.8507998060600471 0.0
1.2284062770406992 0.1586334491277258 0.0
3.7109107624197195 2.3442278572851389 0.0
4.0579407360926218 0.1363135263168457 0.0
3.1240189357995423 -0.3262939738585100 0.0
1.5934213425695636 3.1018860936379506 0.0
1.1779628981398078 0.9968489078016720 0.0
4.0975096020734645 2.1645526210627235 0.0
1.3268033470781708 0.8001819420444006 0.0
1.5294920615923187 2.7801505693024997 0.0
3.6948448508792322 2.1097025093004320 0.0
1.3181056336333787 -0.2713591482007963 0.0
3.2941323814903840 0.8055839063945964 0.0
3.1583138128981401 2.4889172889547537 0.0
2.6857076273964262 -1.4079280012767676 0.0
4.1111530313491729 2.6172933693165858 0.0
3.4315054290082481 1.9847356879525420 0.0
3.8139834704052613 0.2050085424530732 0.0
2.0000745193635301 3.0560644552122764 0.0
3.6272624454748024 3.6725433939095500 0.0
2.4430014659972104 4.0338195986619718 0.0
0.8506546532302331 0.8044489344888573 0.0
3.7686057510691384 2.5374311693362785 0.0
1.0492521948753937 0.5548465825744187 0.0
2.8187733351833910 0.2435180067010458 0.0
2.1246756868944234 2.2103132260007210 0.0
3.6013002422417966 2.8386757241387555 0.0
3.1494811128398421 1.0514388394975585 0.0
0.8213344204298716 0.5885815869881806 0.0
4.1647231726486780 2.0791771749910963 0.0
4.1402278872181189 -0.4800139527515410 0.0
3.5548371234176828 1.6632392388296822 0.0
2.2996546063997858 1.5877494999207871 0.0
0.7641786048666087 3.4574472035069448 0.0
0.9837415971484007 0.8439001527126312 0.0
4.2456793126682326 2.0643471193726861 0.0
1.3044251898791310 1.0392699243222041 0.0
1.2327716706388490 0.4810739839402848 0.0
3.1020308233017335 1.8355575231720507 0.0
1.4046664547520209 -0.2956971232669077 0.0
4.2688982578088055 2.4583574555842280 0.0
3.7519862683094605 1.7061672964508308 0.0
3.1854351931601816 2.2167120084973937 0.0
2.8935070799355733 2.9966659254521182 0.0
3.9336066793582471 3.2611386563821143 0.0
0.9408861783093964 0.2990259064291603 0.0
1.7262037403494204 2.4101618337570661 0.0
4.0789994056279877 2.5411662483456072 0.0
3.6904934766354809 -1.4071546467895570 0.0
1.2131529688251106 3.3076046028946724 0.0
1.1597061047011605 0.4777366585770781 0.0
0.9338450261098866 0.3720258760500937 0.0
0.8782959803920954 0.0532937929321208 0.0
4.1228460591183325 2.4637621056568899 0.0
3.8422945032404150 2.8434456788759834 0.0
2.7295257322938440 1.6014737861448913 0.0
1.0308024145627430 1.4839396090872614 0.0
3.9741332547460217 2.6467862354679204 0.0
4.1746832186688767 2.3797719916655486 0.0
4.3050236012860879 2.2424551452000667 0.0
4.0881267524913119 1.9787777202340817 0.0
1.6335521969289359 2.3202472661450018 0.0
3.7995199128438926 -0.1886645511976476 0.0
1.2088825087437312 0.6115351079122556 0.0
3.8459317407634570 1.5690685744427531 0.0
3.9337730991954452 1.4502010241848162 0.0
2.5535334040028226 1.7437164275214596 0.0
3.0576614400462838 1.5222353038219341 0.0
3.0650529824239094 2.0667566677650360 0.0
3.0861278948884427 1.9477319536116597 0.0
3.3623549609008281 1.7936521406493975 0.0
3.9854194699424572 2.2693014878862239 0.0
1.0291092988138342 0.1402499222211042 0.0
2.8789786798893222 2.1273189311939853 0.0
2.3851779190904185 0.8561535670499384 0.0
2.7219605832533231 1.9697480696236154 0.0
2.3877894818860042 -0.0523821043289464 0.0
4.1606601687260714 -0.7860605977727073 0.0
0.9399052602114935 0.9566208954759670 0.0
2.3130270466468135 -1.0760377349745232 0.0