# vtk DataFile Version 3.0
LucasCarvalhoTCC Results
ASCII

DATASET POLYDATA
FIELD FieldData 1
TIME 1 1 double
5.2

POINTS 531 float
0.02430399999999999 0.16425 0.0
0.5913384 0.481878 0.0
1.30475 0.591832 0.0
0.774126 0.951272 0.0
0.04779564148251592 0.1966194329439859 0.0
0.0726092153537953 0.2279866320496896 0.0
0.09876577335895967 0.2582426022760065 0.0
0.1262817198684718 0.2872673048853742 0.0
0.1551671626852806 0.3149288071400502 0.0
0.1854238368919928 0.3410826624766006 0.0
0.2170424591499632 0.3655716640299072 0.0
0.2499995164635996 0.3882263409476824 0.0
0.2842534387828506 0.4088665906889567 0.0
0.3197403359862048 0.4273050841371062 0.0
0.3563695945475563 0.4433531534921038 0.0
0.3940201673622058 0.4568300511916809 0.0
0.4325386107291805 0.4675762214989666 0.0
0.4717406913237268 0.4754709112408955 0.0
0.5114182513144845 0.480453442081874 0.0
0.5513531678859215 0.4825464217651069 0.0
0.6182637923774223 0.5096055604109244 0.0
0.647389101376845 0.5350126187545199 0.0
0.6784752958296183 0.5579802184492302 0.0
0.7112421079139344 0.5784810076698811 0.0
0.7454110434104482 0.5965507527581431 0.0
0.7807301979183381 0.6122562812860965 0.0
0.8169827939052532 0.6256694297140926 0.0
0.853985522124928 0.6368498290413532 0.0
0.8915818964261243 0.6458353363890481 0.0
0.9296339776508085 0.6526379336565091 0.0
0.9680139759519513 0.6572432424840469 0.0
1.006596418266983 0.659612648128084 0.0
1.045251165872634 0.6596877658251245 0.0
1.083837680945672 0.657397570658483 0.0
1.122201320191055 0.6526688455666412 0.0
1.160173053543044 0.6454405726452737 0.0
1.197574286953346 0.6356824063786186 0.0
1.23422961949795 0.6234159704281613 0.0
1.26998758503999 0.6087366500005643 0.0
1.285086682927543 0.6256533177085738 0.0
1.263669745906668 0.6583917156018083 0.0
1.240480125919214 0.6898988493917133 0.0
1.215532715641304 0.7200329197235763 0.0
1.188869833862339 0.7486599839005789 0.0
1.160556835593143 0.7756559317113654 0.0
1.130680194163798 0.8009104211039757 0.0
1.099347083827048 0.8243335727704395 0.0
1.066684425336412 0.8458643604021228 0.0
1.03283497048792 0.8654772531176074 0.0
0.9979492572630678 0.8831824104874066 0.0
0.9621749986495024 0.8990166556695112 0.0
0.9256475378616493 0.9130272060048579 0.0
0.8884846540507749 0.9252538945090274 0.0
0.8507866567183312 0.935715378288671 0.0
0.8126405010322847 0.9444016349017643 0.0
0.7365055179612304 0.9396161853607135 0.0
0.699310855231089 0.9266666891603924 0.0
0.6626179171945521 0.9123577070090924 0.0
0.6264901449910028 0.8966765244755546 0.0
0.5909789825447118 0.8796450886595113 0.0
0.556124897941028 0.8613059841617771 0.0
0.5219601957009091 0.8417124664434518 0.0
0.4885110616878257 0.8209207172498462 0.0
0.4558007060429968 0.7989848675704875 0.0
0.4238520247653796 0.775953675763176 0.0
0.3926900138417566 0.7518687036338616 0.0
0.3623437622133722 0.7267636709390595 0.0
0.3328479550295906 0.7006647540504483 0.0
0.3042438201183181 0.6735915983461908 0.0
0.2765795358619001 0.6455588748284606 0.0
0.2499101143933102 0.6165781952942546 0.0
0.2242967982692083 0.5866601984136335 0.0
0.1998060807431611 0.5558166834807132 0.0
0.1765083808984156 0.5240625786010467 0.0
0.154476512720734 0.491417660368959 0.0
0.133784033184808 0.457907916333494 0.0
0.114503564227142 0.4235664945146766 0.0
0.09670517293008124 0.3884342245925089 0.0
0.0804548910754031 0.3525597611689231 0.0
0.06581337946329963 0.3159993090744527 0.0
0.05283482490365372 0.2788161107032479 0.0
0.0415660226296666 0.2410796291505872 0.0
0.03204569406625649 0.2028646095712164 0.0
0.5272009874003867 0.6419624505772817 0.0
0.7421848286576707 0.7716726266421574 0.0
0.8789503364783713 0.7829234141383637 0.0
0.6149390992905563 0.7449438030688011 0.0
0.4064556042659638 0.5942834991165423 0.0
0.9875021850865396 0.7666507358101158 0.0
0.3188065960661005 0.539594034984892 0.0
0.61365100263957 0.6399487878797632 0.0
0.8049090660915541 0.8464379870891131 0.0
0.7099820328572021 0.6828840522539854 0.0
0.5239467234991928 0.7406922291088611 0.0
0.8154056325591208 0.7211774015928547 0.0
0.6676178829014909 0.8152713180209475 0.0
0.4416080359619968 0.674360953773491 0.0
0.489443615375965 0.5654986742123573 0.0
1.076665773779852 0.7387182918829318 0.0
0.250390543112057 0.4877450112830265 0.0
0.5736819937919005 0.5790366884881447 0.0
0.7263706755366466 0.8615301097563091 0.0
0.940143307772686 0.8233944909985552 0.0
0.927065543677544 0.7236459161626674 0.0
0.8744389806957806 0.8609114380468947 0.0
0.336888362650554 0.6081958070931937 0.0
0.2030757334857187 0.4383942902513459 0.0
0.3861483329720647 0.5255533415902591 0.0
0.5621001921466506 0.7923778419149285 0.0
0.6822897332295245 0.7428043323059399 0.0
0.5764061681675353 0.6881266532454204 0.0
1.129195449682892 0.7163224153578123 0.0
0.8157794419559141 0.7831214907157077 0.0
0.3806644703311284 0.6554275822782399 0.0
0.7695737871052837 0.669593045341503 0.0
0.4699375460410929 0.6217118815516158 0.0
0.6830867370872363 0.630350317562806 0.0
1.040416897214502 0.7929392348941093 0.0
0.4604428393605979 0.7321209818568342 0.0
0.8729552856459739 0.7015083313474691 0.0
1.017010765275644 0.7166925631396708 0.0
0.6458785458483771 0.6946878992565794 0.0
0.7733575582969163 0.8941098392103913 0.0
0.4457537579383052 0.5273353624588528 0.0
0.163830623786951 0.3903175742448083 0.0
0.6095823984734953 0.8256600013628639 0.0
0.2618074352614998 0.5435604438425528 0.0
0.6287880420949764 0.5875838132975476 0.0
0.3100402147222924 0.4835410260423071 0.0
0.5422177893302824 0.5343158927797464 0.0
0.9964262112680041 0.8213447667248638 0.0
0.4971609598823845 0.6906859160718212 0.0
0.5740517260168769 0.633982031239429 0.0
0.7423299505107201 0.7218768583704394 0.0
0.767147744476665 0.819658485932403 0.0
0.9427329070375209 0.7774595780066723 0.0
0.8375285793481674 0.8869398470561132 0.0
0.2879426409425497 0.5872676364411625 0.0
0.6797562629663748 0.8647676397847667 0.0
1.171674168522591 0.6949964056806914 0.0
0.5261010885606964 0.6055079299963303 0.0
0.7081534744446967 0.8078672678314597 0.0
0.9681672688626206 0.705385299758921 0.0
0.7364069054947873 0.6432919177737106 0.0
0.363826821075015 0.5678764295233764 0.0
0.826170216989844 0.6605791783255148 0.0
0.1284439337099834 0.3602715082199688 0.0
0.518140828090112 0.783905985497134 0.0
0.8452908336054504 0.8167586152211004 0.0
0.2015204468558833 0.492088055688788 0.0
0.4005883523205732 0.7121294304856254 0.0
0.3551392316798573 0.4864133323669936 0.0
0.2501727034998737 0.4443035857235296 0.0
0.857938396055507 0.7390317828783199 0.0
0.9245301815433076 0.8668102132501951 0.0
0.5702050292970205 0.7323438487067678 0.0
1.111607633075016 0.759318252473435 0.0
0.6317193755596126 0.7853891653733797 0.0
0.7921381265818805 0.7497379312370454 0.0
1.088942426366261 0.7015435214091311 0.0
0.5818207607488639 0.5352340257544296 0.0
0.4203532416309484 0.6369649631143086 0.0
0.4854818714173937 0.5131439318707094 0.0
0.4475429831528036 0.5690430472086269 0.0
0.8968753306595262 0.8225547516037004 0.0
0.6339557898063448 0.8543470494763272 0.0
0.3416564411796998 0.6516449771136894 0.0
1.082970576264455 0.7856036465430698 0.0
0.2255204648032354 0.5229464838393291 0.0
0.7335043541589261 0.9012744999286941 0.0
0.9097052989734319 0.6921177492721042 0.0
0.5363428275528405 0.6992389299864537 0.0
0.9657777897300287 0.8588269742066746 0.0
1.025947476617909 0.7556651119714124 0.0
0.1090829970454354 0.3226173037985549 0.0
0.4836644525169279 0.7663103281018557 0.0
0.6910856326166581 0.777867529208468 0.0
0.6694391877434097 0.5946719355048008 0.0
0.2954883530575775 0.4501042133334518 0.0
0.6746032498128595 0.6643957640016517 0.0
1.054636636429828 0.6974583960183274 0.0
0.8939255235163368 0.7470597914537064 0.0
0.3749741568555516 0.6190655430398917 0.0
1.204101441114554 0.6801433534918062 0.0
0.6130053345415899 0.6785345531932346 0.0
0.7679719108452487 0.8562682874000032 0.0
0.9710820219997449 0.8008372590855476 0.0
0.1608022352294362 0.4242591696906621 0.0
0.2865399820604418 0.5141369963640697 0.0
0.1962258775846918 0.4008383427744516 0.0
0.6210920174972845 0.5516143721732873 0.0
0.4843009180093644 0.6583977883024127 0.0
0.5695029195102991 0.8267073580550881 0.0
0.9562891163300477 0.7436031251145003 0.0
0.4174190173896447 0.5044019081507806 0.0
0.410860431802698 0.5535781448116232 0.0
0.8709320861791604 0.9002602580953145 0.0
0.427354757192076 0.7399041791280969 0.0
0.7107884943357746 0.7172753954970394 0.0
1.030382288537246 0.8267335242583146 0.0
0.7737440530215844 0.7115751739064536 0.0
0.8042035044852396 0.9123190309183211 0.0
0.0480920891272324 0.2181807374272496 0.0
0.3695079235280397 0.6886893012630373 0.0
0.773516204411121 0.7830673827025234 0.0
0.302776671534508 0.6210168062901616 0.0
0.7150573728414059 0.6149413270404035 0.0
0.5863276441271683 0.769748656022605 0.0
1.143752049005473 0.6780480059671409 0.0
0.6477132714923303 0.7318578097016951 0.0
0.8380052680878572 0.8531154611905379 0.0
0.5966224054445893 0.6051703156405629 0.0
0.3207240819522855 0.5772784374275386 0.0
0.3520131451607586 0.5263918604440553 0.0
0.8573528491808811 0.6709738722470224 0.0
0.1797236573643203 0.460867988842514 0.0
0.5540828191547277 0.6661566975721369 0.0
1.158039843450239 0.7357536542887966 0.0
0.08638006908591334 0.286237566592474 0.0
0.790861820497242 0.6466611559014377 0.0
0.5362079962218838 0.8121454698907893 0.0
0.9405172130232713 0.6862060282668497 0.0
0.6039359324506977 0.711463595189489 0.0
0.4440093493753478 0.6096873538428137 0.0
0.5500746279087338 0.7620941994763282 0.0
0.2578504496023611 0.5739900063885278 0.0
0.502526452350101 0.6209820553182169 0.0
0.6799833858912959 0.7033681517905728 0.0
0.7183487148906835 0.7518430858176317 0.0
0.8006701240044786 0.8118713608014352 0.0
0.1304684854221093 0.3934039266496895 0.0
1.00789495394612 0.7937868725857601 0.0
0.696960396255943 0.893370944718147 0.0
0.8258315165019564 0.7538365084989149 0.0
0.8462950259502577 0.775614153529746 0.0
0.4082018839227037 0.6749460331934272 0.0
0.7025889307788081 0.8378536687159448 0.0
0.4666676520109517 0.6984557076050861 0.0
[...]
POINT_DATA 531

VECTORS Velocity float
0.0000000000000000 1.0000000000000000 0.0
0.0000000000000000 1.0000000000000000 0.0
2.6381901489371309 -0.9593306475625952 0.0
1.7814935198319597 1.0216842818469576 0.0
0.0000000000000000 1.0000000000000000 0.0
0.0000000000000000 1.0000000000000000 0.0
0.0000000000000000 1.0000000000000000 0.0
0.0000000000000000 1.0000000000000000 0.0
0.0000000000000000 1.0000000000000000 0.0
0.0000000000000000 1.0000000000000000 0.0
0.0000000000000000 1.0000000000000000 0.0
0.0000000000000000 1.0000000000000000 0.0
0.0000000000000000 1.0000000000000000 0.0
0.0000000000000000 1.0000000000000000 0.0
0.0000000000000000 1.0000000000000000 0.0
0.0000000000000000 1.0000000000000000 0.0
0.0000000000000000 1.0000000000000000 0.0
0.0000000000000000 1.0000000000000000 0.0
0.0000000000000000 1.0000000000000000 0.0
0.0000000000000000 1.0000000000000000 0.0
0.0000000000000000 0.0000000000000000 0.0
0.0000000000000000 0.0000000000000000 0.0
0.0000000000000000 0.0000000000000000 0.0
0.0000000000000000 0.0000000000000000 0.0
0.0000000000000000 0.0000000000000000 0.0
0.0000000000000000 0.0000000000000000 0.0
0.0000000000000000 0.0000000000000000 0.0
0.0000000000000000 0.0000000000000000 0.0
0.0000000000000000 0.0000000000000000 0.0
0.0000000000000000 0.0000000000000000 0.0
0.0000000000000000 0.0000000000000000 0.0
0.0000000000000000 0.0000000000000000 0.0
0.0000000000000000 0.0000000000000000 0.0
0.0000000000000000 0.0000000000000000 0.0
0.0000000000000000 0.0000000000000000 0.0
0.0000000000000000 0.0000000000000000 0.0
0.0000000000000000 0.0000000000000000 0.0
0.0000000000000000 0.0000000000000000 0.0
0.0000000000000000 0.0000000000000000 0.0
2.6783007223719264 -1.7943033205122816 0.0
3.6707224283287831 -2.3036524250528672 0.0
3.7614839336096964 -2.2272621070109078 0.0
3.7623151763112883 -1.9753509376239493 0.0
3.8537693555074859 -1.7617500922580114 0.0
3.9577587369557099 -1.4623003525930283 0.0
4.0184801591464936 -1.3094626974549992 0.0
4.1452169995169603 -1.0851619018059495 0.0
4.1302559443151203 -0.7911396172467146 0.0
4.1138824218297758 -0.5267548350119479 0.0
3.9814457222443962 -0.2330237800543792 0.0
3.7613421383866821 0.0642991071175252 0.0
3.5725728491044495 0.2956414404978083 0.0
3.2124103939445541 0.5432136153926781 0.0
2.5919507309477829 1.0890517678055225 0.0
1.7545160877824024 0.9418795788845710 0.0
0.0000000000000000 0.0000000000000000 0.0
0.0000000000000000 0.0000000000000000 0.0
0.0000000000000000 0.0000000000000000 0.0
0.0000000000000000 0.0000000000000000 0.0
0.0000000000000000 0.0000000000000000 0.0
0.0000000000000000 0.0000000000000000 0.0
0.0000000000000000 0.0000000000000000 0.0
0.0000000000000000 0.0000000000000000 0.0
0.0000000000000000 0.0000000000000000 0.0
0.0000000000000000 0.0000000000000000 0.0
0.0000000000000000 0.0000000000000000 0.0
0.0000000000000000 0.0000000000000000 0.0
0.0000000000000000 0.0000000000000000 0.0
0.0000000000000000 0.0000000000000000 0.0
0.0000000000000000 0.0000000000000000 0.0
0.0000000000000000 0.0000000000000000 0.0
0.0000000000000000 0.0000000000000000 0.0
0.0000000000000000 0.0000000000000000 0.0
0.0000000000000000 0.0000000000000000 0.0
0.0000000000000000 0.0000000000000000 0.0
0.0000000000000000 0.0000000000000000 0.0
0.0000000000000000 0.0000000000000000 0.0
0.0000000000000000 0.0000000000000000 0.0
0.0000000000000000 0.0000000000000000 0.0
0.0000000000000000 0.0000000000000000 0.0
0.0000000000000000 0.0000000000000000 0.0
0.0000000000000000 0.0000000000000000 0.0
0.0000000000000000 0.0000000000000000 0.0
3.9883485615275962 2.6033548823934018 0.0
4.2915597313539902 2.1401516310742066 0.0
3.9148613010534636 1.1761388714021870 0.0
3.8364452512453271 2.2075519962569810 0.0
3.8180610533043073 2.9210523308008516 0.0
3.4469243882154483 0.0841460567348401 0.0
3.9080990504537154 3.4777081340408955 0.0
3.7680263142083570 2.4443058978103580 0.0
3.7458693302810273 1.9434910518550059 0.0
3.5730555043124355 1.7323838730396206 0.0
2.8464895836997597 1.8073534358588419 0.0
3.3624452785809735 1.3723109749065499 0.0
3.2269877482011631 1.6706285414827646 0.0
3.1620288134520278 2.3495084970564539 0.0
3.2665800348490288 2.5086725441707345 0.0
3.0294393792737715 -0.4931587665151802 0.0
3.6098665029922996 3.8488569882545001 0.0
2.5019493528056662 2.1155613968463705 0.0
2.9181984156907954 1.4048596137660010 0.0
3.9173042146624519 0.5429371477066693 0.0
2.3511720325829764 0.3691765612886619 0.0
3.6691872778356238 1.2244201240260271 0.0
2.7993459604332798 2.6328597568072478 0.0
3.4916964593810698 4.5879997092440936 0.0
3.6304013623747822 2.6434462392081040 0.0
2.2670958834995933 1.3332959285909021 0.0
4.3331084537068572 2.3428957638686430 0.0
4.0130333410531964 2.5835073054195781 0.0
2.8551472885765863 -0.7919154508775774 0.0
4.1175443898895523 1.7973791207547245 0.0
2.5174894940674979 2.0363907935702796 0.0
2.5436235683170163 1.0657987091829411 0.0
3.9263799489259985 2.7313679916998814 0.0
2.7056100079112184 1.3438446050882222 0.0
3.8231187253633103 -0.4146955776231819 0.0
1.9793700577328797 1.4419355778096139 0.0
2.2497576250060614 0.6156337820461807 0.0
2.1034903065122084 0.0449797191005108 0.0
4.1635560359449908 2.4730983318464070 0.0
2.6127440551359111 1.7091658122052769 0.0
2.8004173257309644 2.4545871783209825 0.0
2.9347267240640220 4.7381403429503681 0.0
2.3721808752808466 1.2660154927249747 0.0
2.5248080834734252 2.8799414726816632 0.0
2.1686466531449371 1.6421571530574977 0.0
3.2860830158266587 3.5020479639534248 0.0
1.8142400988948200 1.7689113599857100 0.0
3.9751285194625159 -0.0785918704134321 0.0
3.5044106241424666 2.2749395214860719 0.0
3.8718398449464297 2.5700753959645124 0.0
3.9924435114215644 1.9891268911291862 0.0
4.0494332538774813 2.0922018946135306 0.0
3.6401584532184916 0.4591861746216199 0.0
3.1026844599625631 1.5872268886117231 0.0
1.6453081607901967 1.6774261501436099 0.0
2.2581328209890481 1.0731597170454905 0.0
2.8664472164587491 -1.0467669488665550 0.0
3.7198992430659259 2.5595374912518452 0.0
3.8883709978621930 1.9833785830085520 0.0
1.4333936013800421 0.0771855043174169 0.0
2.0096101835467799 1.0885622134751725 0.0
3.7346155911812109 3.1692356599545337 0.0
1.1175432838149137 0.4438150452153842 0.0
1.8313772126573298 3.2599893535010160 0.0
1.4834000295331728 0.8598472464798379 0.0
3.9839391755380373 1.5666414970482931 0.0
1.8405552039728412 2.2639447492658826 0.0
1.0961460857926888 0.7295146071389693 0.0
2.1225435199466283 2.3897594452879356 0.0
2.7846780065290209 3.3820732538861398 0.0
3.3479372899375921 1.0939070348317648 0.0
3.7984050144543349 0.6573470350798146 0.0
3.5843522662000074 2.2349656604879802 0.0
3.7621185562316279 -1.1209086376372277 0.0
3.3018944841508908 1.7781077369835072 0.0
4.0288348440228621 1.7837506894986639 0.0
1.6458817588722146 -0.3322576264571248 0.0
1.4083465229260692 1.5087901676454945 0.0
3.4465303678290815 2.5957566519273629 0.0
1.2840786790143282 1.8015322605275774 0.0
3.6005267679305613 2.7461569359854887 0.0
3.9220824770945897 1.0808542015726628 0.0
1.4745528329512574 0.7810771660983771 0.0
1.3704370096167644 1.3079025551929413 0.0
3.9132904175302134 -0.9160039481828335 0.0
1.8247877932514822 1.8424794814057002 0.0
1.5163460899170675 0.8473178182759596 0.0
1.2660579679306800 0.1585042886534319 0.0
3.7145371234531113 2.3645016688094427 0.0
3.9885738242809374 0.1648092637398603 0.0
3.1558746994001368 -0.2996683954923722 0.0
1.5934207463848309 3.1018867876420071 0.0
1.1961910670102038 1.0149333664482381 0.0
4.1108789140060287 2.1457277211153749 0.0
1.3126604537173074 0.7937333097957495 0.0
1.5296934807802813 2.7802638995021947 0.0
3.6646750881626908 2.0908167180194335 0.0
1.3352145457117486 -0.2664668584465834 0.0
3.3437604546056146 0.7997494411010094 0.0
3.1588271157964880 2.4983405680132322 0.0
2.6859684533123680 -1.4074402801583565 0.0
4.0826314534679540 2.6081353582622930 0.0
3.4370926990456847 1.9540600599999074 0.0
3.8166802275977076 0.2254293568454060 0.0
2.0000939812049543 3.0560125200741917 0.0
3.6267026462618763 3.6734626087757825 0.0
2.4430586133165781 4.0337979648381603 0.0
0.8444692526504700 0.8014354266375102 0.0
3.7604665617477782 2.5528677715028318 0.0
1.0716969514752683 0.5664917885999184 0.0
2.8743264998955462 0.2559194185844496 0.0
2.1198766185191089 2.2098009970160222 0.0
3.5945097857486910 2.8405766090570963 0.0
3.1021741777811394 1.0486505086075459 0.0
0.8310329603981671 0.5977656481455796 0.0
4.1495448442112828 2.0462968541669100 0.0
4.0991866273634914 -0.4388817415007770 0.0
3.5588833153599890 1.6295770214243102 0.0
2.2858558028839111 1.5802749932813083 0.0
0.7641786057942962 3.4574472035036070 0.0
0.9887182756604713 0.8503310090879413 0.0
4.2419944626812480 2.0110740023144795 0.0
1.3051691342402283 1.0411944736780694 0.0
1.2188688095972575 0.4739311407037106 0.0
3.1371381056406649 1.8567986141000128 0.0
1.4085955856360906 -0.2948839125272672 0.0
4.2598291130967487 2.4464419630410785 0.0
3.7271043564090700 1.6741576682993675 0.0
3.1587767017537387 2.2126176878205253 0.0
2.8939696889099000 3.0007801620211314 0.0
3.9301405818247148 3.2632206585702761 0.0
0.9607261639168329 0.3007492040998158 0.0
1.7261993356934842 2.4100342470085829 0.0
4.0546464897440870 2.5493524419762323 0.0
3.6904453945331324 -1.3991661259640369 0.0
1.2131527828676671 3.3076046206586907 0.0
1.1628379569223153 0.4752592512535950 0.0
0.9548046509975660 0.3810115795318519 0.0
0.9074157058525832 0.0544774111493058 0.0
4.1126435888451569 2.4661098136921731 0.0
3.8324485172895608 2.8497198113257269 0.0
2.7622609905562014 1.6272683835250359 0.0
1.0306674618789902 1.4843712028945037 0.0
3.9526144199508968 2.6523001814968050 0.0
4.1522687420311994 2.3546289335851807 0.0
4.2986925868363208 2.2033438427410275 0.0
4.0808246629252274 1.9242338750564916 0.0
1.6335589395088117 2.3202392003156351 0.0
3.8029708033721672 -0.1527877104715647 0.0
1.2240148441843026 0.6154371928616315 0.0
3.8637140355062787 1.5333051007861302 0.0
3.9472602165032691 1.4137891335614627 0.0
2.5605812744194756 1.7572830009415785 0.0
3.0850741599869074 1.5147979675589605 0.0
3.0753038620314923 2.0886383964003650 0.0
3.0580152513550924 1.9360346899404657 0.0
3.3517679229286417 1.7620274904935822 0.0
4.0030855735283071 2.2632322766598709 0.0
1.0568250414768303 0.1468768932767346 0.0
2.8648740706913989 2.1263225540853785 0.0
2.4223612572477258 0.8509501987904393 0.0
2.7420234790318907 1.9938842265094254 0.0
2.4374465699065011 -0.0378694008755825 0.0
4.1326836697205351 -0.7451545876331560 0.0
0.9397282511362843 0.9565336198191186 0.0
2.3129992265171766 -1.0760874522407011 0.0
4.0653563166468940 2.5911285772782531 0.0
2.8363240509750076 1.4270378118085334 0.0
3.1205803774013559 1.8514814979934022 0.0
3.4918017704918025 3.9778894089847840 0.0
0.5232234272728997 1.6423970254579940 0.0
3.7460876441713880 2.7511340873120806 0.0
1.5492670223431229 1.8408315908529465 0.0
2.9173876821680214 -0.6961667406710844 0.0
3.7849460247089874 0.8295339624296962 0.0
3.6174277561790897 2.4708362770564305 0.0
0.6340203961978854 0.5017663461873154 0.0
1.2011467683064885 2.2395915553723276 0.0
3.1055621101437390 2.7518178060003282 0.0
1.7180163443148710 2.9227395939716816 0.0
1.0180595992767567 1.8912807371286475 0.0
0.8147752534616012 1.5834147596688850 0.0
1.6637152945039784 3.0813955522257839 0.0
1.4421345301903521 1.1772951016652198 0.0
2.1903203660507975 -1.4148833867715618 0.0
2.1184599734764178 1.5757189476358102 0.0
0.6671433409881276 0.2936979379001988 0.0
0.7631056286274823 0.5778685187966800 0.0
3.9201233575828556 3.4623538010186365 0.0
1.2646356048211953 -0.0776685391939144 0.0
3.3673551944704734 0.8367592037151880 0.0
4.0688321384122057 -0.1583080425107009 0.0
3.8897377395161388 2.3987106948297785 0.0
1.1250736530199426 3.3292141609486849 0.0
2.5284725077401466 0.6928117976333789 0.0
0.5968175973085889 0.3592407356921318 0.0
3.4680602978906916 -0.4731890096441561 0.0
3.6857659650225534 2.6485188328878913 0.0
0.7525190497505666 -0.0146253269994518 0.0
2.5937156217292738 -0.2625048550035404 0.0
2.6594873151672016 1.4282687850857849 0.0
3.6936556647762266 -1.7339975967626104 0.0
0.8037293925198082 0.1060762823412599 0.0
2.4323130859311264 1.5399074493965834 0.0
2.8539205390223903 2.4183770472901815 0.0
2.2165653628198396 1.9593386386221241 0.0
3.9105688475258726 2.5329554496410904 0.0
3.7771753737952714 1.9306248835079278 0.0
2.5049509219637400 1.1010878368909076 0.0
3.7091940911609051 3.7865052179237400 0.0
4.1859216838515305 2.1140532004363952 0.0
0.9359484128849802 0.5962170960016067 0.0
3.1438673290686228 3.2362789022484653 0.0
2.7187654377357093 1.6659133840121507 0.0
4.2203278493969334 2.1985914418465633 0.0
4.1398052250041735 2.0178202230909115 0.0
3.0976028172494652 2.1899599655101016 0.0
3.7353420313434582 2.5796068093815414 0.0
1.2609448149400666 -0.7696156423687971 0.0
3.3051776889173232 0.6479426900825201 0.0
3.9797987709719025 0.1503984090716688 0.0
1.6698226561263685 4.0683860785255064 0.0
2.2522461157914178 1.8663407991724135 0.0
0.7069590986210060 0.6016410069786504 0.0
3.9981744174665637 2.5962951172250310 0.0
4.2872571888982094 2.1462598053032536 0.0
3.9148987715165906 1.1873771797823169 0.0
3.8192969112713806 2.1974022911802225 0.0
3.8224686181310132 2.9123985108138091 0.0
3.4472989088799295 0.0891660994933807 0.0
3.9096433405112623 3.4746081768443835 0.0
3.7889969710737965 2.4556288597020526 0.0
3.7270338177238700 1.9509922929041479 0.0
3.5960440634303508 1.7465538847716124 0.0
2.8263268085269764 1.7903083029661395 0.0
3.3798041306893074 1.3848498783303818 0.0
3.2018786825560355 1.6608222128624894 0.0
3.1528976823856860 2.3323311463270664 0.0
3.2842031463564938 2.5052725154486843 0.0
3.0294878677118935 -0.4930165153064281 0.0
3.6097948185585644 3.8490581248351972 0.0
2.5232238361155432 2.1221799428717278 0.0
2.8956856736272463 1.4004158007687029 0.0
3.9124193386077235 0.5497273131598067 0.0
2.3582609220883648 0.3745407143037406 0.0
3.6570346079744178 1.2303545111787180 0.0
2.7984777312900557 2.6270838867640998 0.0
3.4915980716383346 4.5880971838767826 0.0
3.6355000634744781 2.6412282741625113 0.0
2.2441646298141462 1.3199041785616912 0.0
4.3328728141241317 2.3454149432004026 0.0
4.0108762340802686 2.5770201616650015 0.0
2.8550915777134120 -0.7920348169808507 0.0
4.1153584288748206 1.8103051484987085 0.0
2.5120955644748384 2.0262009782263717 0.0
2.5657424590462843 1.0764764662418478 0.0
3.9338657631720562 2.7196326710505208 0.0
2.7310171092297479 1.3570791012118235 0.0
3.8230105348005008 -0.4134857628011406 0.0
1.9636004234700670 1.4281764771205776 0.0
2.2635374494335299 0.6214354264586621 0.0
2.1043390295342848 0.0464798473737366 0.0
4.1742450393254575 2.4799266335099870 0.0
2.5956927805012873 1.7085774245443879 0.0
2.8114750220577784 2.4536524921365221 0.0
2.9347129450457206 4.7381542562628907 0.0
2.3492482935906405 1.2541075247684139 0.0
2.5252673480459848 2.8798482150182410 0.0
2.1900626401480783 1.6564203108147648 0.0
3.2862956104098688 3.5015126443655964 0.0
1.8314569889550116 1.7711361866140154 0.0
3.9730133936179959 -0.0755445375234817 0.0
3.4914400988529350 2.2574818512587580 0.0
3.8894735540412149 2.5718947867082140 0.0
4.0084675361780970 2.0001717237557690 0.0
4.0312039382270664 2.0964343273522767 0.0
3.6395256245585657 0.4664901918505736 0.0
3.0913489262637763 1.5901256884561439 0.0
1.6452589736828904 1.6762589975364786 0.0
2.2362241217716918 1.0651211481180580 0.0
2.8664219193405791 -1.0468490050106327 0.0
3.7370063908231894 2.5578237210245325 0.0
3.8663415308311255 1.9779996379802303 0.0
1.4370116100650163 0.0801983311845690 0.0
2.0301765906779505 1.0992910810602781 0.0
3.7373078096403005 3.1636137041301824 0.0
1.1299354736928602 0.4491129087057918 0.0
1.8313752549578359 3.2599926578839131 0.0
1.4670835405196654 0.8492375429674440 0.0
3.9736960477974135 1.5772295390783082 0.0
1.8406216592122449 2.2642263289492575 0.0
1.0888387552666776 0.7226364854384051 0.0
2.1245020995416102 2.3888647241852965 0.0
2.7843392744927860 3.3820745935530301 0.0
3.3585846430763757 1.1051945194562682 0.0
3.7920535602590659 0.6615340943985645 0.0
3.5676863512206256 2.2204835495496780 0.0
3.7622582770055968 -1.1211151076801709 0.0
3.2773322257766151 1.7663055761707969 0.0
4.0381615641613822 1.7961297010102111 0.0
1.6456297675383988 -0.3323344991105457 0.0
1.4227304665818017 1.5145157718209281 0.0
3.4445380605343781 2.5831216187209942 0.0
1.2938615289204956 1.8019831553766068 0.0
3.6117205892228639 2.7399156228564774 0.0
3.9146485333635557 1.0905021520467084 0.0
1.4572551796591759 0.7726413296222816 0.0
1.3675879272074254 1.3028587450700253 0.0
3.9135368441503724 -0.9159559829377214 0.0
1.8250055302112616 1.8427758195815174 0.0
1.5038211820743204 0.8451973856662386 0.0
1.2732094041251518 0.1619154848169594 0.0
3.7020326001320565 2.3505635655263606 0.0
3.9853234474366288 0.1672979872449307 0.0
3.1562853893059080 -0.2972628841766278 0.0
1.5934211842235400 3.1018861134868501 0.0
1.1823906433598073 1.0026238168541872 0.0
4.0946481665000336 2.1421576194713872 0.0
1.3298092240308876 0.8036859052650727 0.0
1.5293558140915422 2.7801373865781747 0.0
3.6882511764384742 2.1041695081210885 0.0
1.3351004065701080 -0.2661494215176134 0.0
3.3488038647871603 0.8095261600970113 0.0
3.1581758752775442 2.4884044738389668 0.0
2.6859675968161265 -1.4074456514471194 0.0
4.0928013171656650 2.6122579789551090 0.0
3.4150397421555247 1.9544807954069690 0.0
3.8146876022529019 0.2304542209052440 0.0
2.0000753814499679 3.0560689399925378 0.0
3.6271464559732451 3.6727164277793651 0.0
2.4429992503922699 4.0338187397908802 0.0
0.8556856832168477 0.8103143962380780 0.0
3.7579519847722072 2.5374469878485328 0.0
1.0571985667466310 0.5590161108139208 0.0
2.8776998054736245 0.2614521399072499 0.0
2.1260076593193107 2.2093345414515677 0.0
3.6026180063426714 2.8356898244837883 0.0
3.0945576692968433 1.0516748266682217 0.0
0.8227694817140827 0.5906503924423693 0.0
4.1640099631912211 2.0567027137562186 0.0
4.0985371400732697 -0.4378955682234129 0.0
3.5784777783074686 1.6424470726646925 0.0
2.2768984410807480 1.5807619353885560 0.0
0.7641786057942963 3.4574472035036075 0.0
0.9838255689652052 0.8442730877632103 0.0
4.2365771578630458 2.0202845417924187 0.0
1.3044912154590944 1.0392732364884554 0.0
1.2357901837559975 0.4814191490700965 0.0
3.1127085432388828 1.8426031771203688 0.0
1.4084909307894398 -0.2949068227466000 0.0
4.2578732118337488 2.4469396364569524 0.0
3.7106362244306865 1.6802419397880517 0.0
3.1824487204102301 2.2230599110303375 0.0
2.8937251802278374 2.9967540829065649 0.0
3.9334480192055401 3.2607762193022274 0.0
0.9705526269688095 0.3043751817120685 0.0
1.7262064523815890 2.4101765135518756 0.0
4.0585986558993259 2.5432667898632908 0.0
3.6904880113371590 -1.3993062297998622 0.0
1.2131529774657366 3.3076046267868295 0.0
1.1769891472024356 0.4815938003640335 0.0
0.9406049136113832 0.3747361012164180 0.0
0.9124406341963711 0.0561746802179050 0.0
4.1091114915845592 2.4607856944547413 0.0
3.8389652351480921 2.8378487055682129 0.0
2.7394446817155589 1.6119413197674399 0.0
1.0308639060876270 1.4840593598049230 0.0
3.9626090009694752 2.6425234807289355 0.0
4.1656700419889168 2.3638814993343042 0.0
4.3006385146158639 2.2084919434211403 0.0
4.0670153361689563 1.9336933704547832 0.0
1.6335531137011572 2.3202492437793727 0.0
3.8023488799489962 -0.1493932320903330 0.0
1.2114705609868908 0.6107178461067262 0.0
3.8715708428833722 1.5463083744609851 0.0
3.9476786774368220 1.4278682153779874 0.0
2.5526186261735027 1.7456483727011309 0.0
3.0606050835920935 1.5092557899325578 0.0
3.0618383861602667 2.0716313734574743 0.0
3.0838927707794412 1.9510489131501505 0.0
3.3753956279024031 1.7747272595226149 0.0
3.9850983456399094 2.2572180473310470 0.0
1.0584799103784279 0.1478902896398686 0.0
2.8861842586733930 2.1268411701958629 0.0
2.4394006284160135 0.8605045776732189 0.0
2.7241765015323622 1.9774930481542112 0.0
2.4396587501544289 -0.0342759982218067 0.0
4.1327273728547862 -0.7449366026777869 0.0
0.9399545467481618 0.9567147140159081 0.0
2.3130003766321536 -1.0760850880844717 0.0