# vtk DataFile Version 3.0
LucasCarvalhoTCC Results
ASCII

DATASET POLYDATA
FIELD FieldData 1
TIME 1 1 double
5.300000000000001

POINTS 531 float
0.02430399999999999 0.16425 0.0
0.5913384 0.481878 0.0
1.30475 0.591832 0.0
0.774126 0.951272 0.0
0.04779564148251592 0.1966194329439859 0.0
0.0726092153537953 0.2279866320496896 0.0
0.09876577335895967 0.2582426022760065 0.0
0.1262817198684718 0.2872673048853742 0.0
0.1551671626852806 0.3149288071400502 0.0
0.1854238368919928 0.3410826624766006 0.0
0.2170424591499632 0.3655716640299072 0.0
0.2499995164635996 0.3882263409476824 0.0
0.2842534387828506 0.4088665906889567 0.0
0.3197403359862048 0.4273050841371062 0.0
0.3563695945475563 0.4433531534921038 0.0
0.3940201673622058 0.4568300511916809 0.0
0.4325386107291805 0.4675762214989666 0.0
0.4717406913237268 0.4754709112408955 0.0
0.5114182513144845 0.480453442081874 0.0
0.5513531678859215 0.4825464217651069 0.0
0.6182637923774223 0.5096055604109244 0.0
0.647389101376845 0.5350126187545199 0.0
0.6784752958296183 0.5579802184492302 0.0
0.7112421079139344 0.5784810076698811 0.0
0.7454110434104482 0.5965507527581431 0.0
0.7807301979183381 0.6122562812860965 0.0
0.8169827939052532 0.6256694297140926 0.0
0.853985522124928 0.6368498290413532 0.0
0.8915818964261243 0.6458353363890481 0.0
0.9296339776508085 0.6526379336565091 0.0
0.9680139759519513 0.6572432424840469 0.0
1.006596418266983 0.659612648128084 0.0
1.045251165872634 0.6596877658251245 0.0
1.083837680945672 0.657397570658483 0.0
1.122201320191055 0.6526688455666412 0.0
1.160173053543044 0.6454405726452737 0.0
1.197574286953346 0.6356824063786186 0.0
1.23422961949795 0.6234159704281613 0.0
1.26998758503999 0.6087366500005643 0.0
1.285086682927543 0.6256533177085738 0.0
1.263669745906668 0.6583917156018083 0.0
1.240480125919214 0.6898988493917133 0.0
1.215532715641304 0.7200329197235763 0.0
1.188869833862339 0.7486599839005789 0.0
1.160556835593143 0.7756559317113654 0.0
1.130680194163798 0.8009104211039757 0.0
1.099347083827048 0.8243335727704395 0.0
1.066684425336412 0.8458643604021228 0.0
1.03283497048792 0.8654772531176074 0.0
0.9979492572630678 0.8831824104874066 0.0
0.9621749986495024 0.8990166556695112 0.0
0.9256475378616493 0.9130272060048579 0.0
0.8884846540507749 0.9252538945090274 0.0
0.8507866567183312 0.935715378288671 0.0
0.8126405010322847 0.9444016349017643 0.0
0.7365055179612304 0.9396161853607135 0.0
0.699310855231089 0.9266666891603924 0.0
0.6626179171945521 0.9123577070090924 0.0
0.6264901449910028 0.8966765244755546 0.0
0.5909789825447118 0.8796450886595113 0.0
0.556124897941028 0.8613059841617771 0.0
0.5219601957009091 0.8417124664434518 0.0
0.4885110616878257 0.8209207172498462 0.0
0.4558007060429968 0.7989848675704875 0.0
0.4238520247653796 0.775953675763176 0.0
0.3926900138417566 0.7518687036338616 0.0
0.3623437622133722 0.7267636709390595 0.0
0.3328479550295906 0.7006647540504483 0.0
0.3042438201183181 0.6735915983461908 0.0
0.2765795358619001 0.6455588748284606 0.0
0.2499101143933102 0.6165781952942546 0.0
0.2242967982692083 0.5866601984136335 0.0
0.1998060807431611 0.5558166834807132 0.0
0.1765083808984156 0.5240625786010467 0.0
0.154476512720734 0.491417660368959 0.0
0.133784033184808 0.457907916333494 0.0
0.114503564227142 0.4235664945146766 0.0
0.09670517293008124 0.3884342245925089 0.0
0.0804548910754031 0.3525597611689231 0.0
0.06581337946329963 0.3159993090744527 0.0
0.05283482490365372 0.2788161107032479 0.0
0.0415660226296666 0.2410796291505872 0.0
0.03204569406625649 0.2028646095712164 0.0
0.5272009874003867 0.6419624505772817 0.0
0.7421848286576707 0.7716726266421574 0.0
0.8789503364783713 0.7829234141383637 0.0
0.6149390992905563 0.7449438030688011 0.0
0.4064556042659638 0.5942834991165423 0.0
0.9875021850865396 0.7666507358101158 0.0
0.3188065960661005 0.539594034984892 0.0
0.61365100263957 0.6399487878797632 0.0
0.8049090660915541 0.8464379870891131 0.0
0.7099820328572021 0.6828840522539854 0.0
0.5239467234991928 0.7406922291088611 0.0
0.8154056325591208 0.7211774015928547 0.0
0.6676178829014909 0.8152713180209475 0.0
0.4416080359619968 0.674360953773491 0.0
0.489443615375965 0.5654986742123573 0.0
1.076665773779852 0.7387182918829318 0.0
0.250390543112057 0.4877450112830265 0.0
0.5736819937919005 0.5790366884881447 0.0
0.7263706755366466 0.8615301097563091 0.0
0.940143307772686 0.8233944909985552 0.0
0.927065543677544 0.7236459161626674 0.0
0.8744389806957806 0.8609114380468947 0.0
0.336888362650554 0.6081958070931937 0.0
0.2030757334857187 0.4383942902513459 0.0
0.3861483329720647 0.5255533415902591 0.0
0.5621001921466506 0.7923778419149285 0.0
0.6822897332295245 0.7428043323059399 0.0
0.5764061681675353 0.6881266532454204 0.0
1.129195449682892 0.7163224153578123 0.0
0.8157794419559141 0.7831214907157077 0.0
0.3806644703311284 0.6554275822782399 0.0
0.7695737871052837 0.669593045341503 0.0
0.4699375460410929 0.6217118815516158 0.0
0.6830867370872363 0.630350317562806 0.0
1.040416897214502 0.7929392348941093 0.0
0.4604428393605979 0.7321209818568342 0.0
0.8729552856459739 0.7015083313474691 0.0
1.017010765275644 0.7166925631396708 0.0
0.6458785458483771 0.6946878992565794 0.0
0.7733575582969163 0.8941098392103913 0.0
0.4457537579383052 0.5273353624588528 0.0
0.163830623786951 0.3903175742448083 0.0
0.6095823984734953 0.8256600013628639 0.0
0.2618074352614998 0.5435604438425528 0.0
0.6287880420949764 0.5875838132975476 0.0
0.3100402147222924 0.4835410260423071 0.0
0.5422177893302824 0.5343158927797464 0.0
0.9964262112680041 0.8213447667248638 0.0
0.4971609598823845 0.6906859160718212 0.0
0.5740517260168769 0.633982031239429 0.0
0.7423299505107201 0.7218768583704394 0.0
0.767147744476665 0.819658485932403 0.0
0.9427329070375209 0.7774595780066723 0.0
0.8375285793481674 0.8869398470561132 0.0
0.2879426409425497 0.5872676364411625 0.0
0.6797562629663748 0.8647676397847667 0.0
1.171674168522591 0.6949964056806914 0.0
0.5261010885606964 0.6055079299963303 0.0
0.7081534744446967 0.8078672678314597 0.0
0.9681672688626206 0.705385299758921 0.0
0.7364069054947873 0.6432919177737106 0.0
0.363826821075015 0.5678764295233764 0.0
0.826170216989844 0.6605791783255148 0.0
0.1284439337099834 0.3602715082199688 0.0
0.518140828090112 0.783905985497134 0.0
0.8452908336054504 0.8167586152211004 0.0
0.2015204468558833 0.492088055688788 0.0
0.4005883523205732 0.7121294304856254 0.0
0.3551392316798573 0.4864133323669936 0.0
0.2501727034998737 0.4443035857235296 0.0
0.857938396055507 0.7390317828783199 0.0
0.9245301815433076 0.8668102132501951 0.0
0.5702050292970205 0.7323438487067678 0.0
1.111607633075016 0.759318252473435 0.0
0.6317193755596126 0.7853891653733797 0.0
0.7921381265818805 0.7497379312370454 0.0
1.088942426366261 0.7015435214091311 0.0
0.5818207607488639 0.5352340257544296 0.0
0.4203532416309484 0.6369649631143086 0.0
0.4854818714173937 0.5131439318707094 0.0
0.4475429831528036 0.5690430472086269 0.0
0.8968753306595262 0.8225547516037004 0.0
0.6339557898063448 0.8543470494763272 0.0
0.3416564411796998 0.6516449771136894 0.0
1.082970576264455 0.7856036465430698 0.0
0.2255204648032354 0.5229464838393291 0.0
0.7335043541589261 0.9012744999286941 0.0
0.9097052989734319 0.6921177492721042 0.0
0.5363428275528405 0.6992389299864537 0.0
0.9657777897300287 0.8588269742066746 0.0
1.025947476617909 0.7556651119714124 0.0
0.1090829970454354 0.3226173037985549 0.0
0.4836644525169279 0.7663103281018557 0.0
0.6910856326166581 0.777867529208468 0.0
0.6694391877434097 0.5946719355048008 0.0
0.2954883530575775 0.4501042133334518 0.0
0.6746032498128595 0.6643957640016517 0.0
1.054636636429828 0.6974583960183274 0.0
0.8939255235163368 0.7470597914537064 0.0
0.3749741568555516 0.6190655430398917 0.0
1.204101441114554 0.6801433534918062 0.0
0.6130053345415899 0.6785345531932346 0.0
0.7679719108452487 0.8562682874000032 0.0
0.9710820219997449 0.8008372590855476 0.0
0.1608022352294362 0.4242591696906621 0.0
0.2865399820604418 0.5141369963640697 0.0
0.1962258775846918 0.4008383427744516 0.0
0.6210920174972845 0.5516143721732873 0.0
0.4843009180093644 0.6583977883024127 0.0
0.5695029195102991 0.8267073580550881 0.0
0.9562891163300477 0.7436031251145003 0.0
0.4174190173896447 0.5044019081507806 0.0
0.410860431802698 0.5535781448116232 0.0
0.8709320861791604 0.9002602580953145 0.0
0.427354757192076 0.7399041791280969 0.0
0.7107884943357746 0.7172753954970394 0.0
1.030382288537246 0.8267335242583146 0.0
0.7737440530215844 0.7115751739064536 0.0
0.8042035044852396 0.9123190309183211 0.0
0.0480920891272324 0.2181807374272496 0.0
0.3695079235280397 0.6886893012630373 0.0
0.773516204411121 0.7830673827025234 0.0
0.302776671534508 0.6210168062901616 0.0
0.7150573728414059 0.6149413270404035 0.0
0.5863276441271683 0.769748656022605 0.0
1.143752049005473 0.6780480059671409 0.0
0.6477132714923303 0.7318578097016951 0.0
0.8380052680878572 0.8531154611905379 0.0
0.5966224054445893 0.6051703156405629 0.0
0.3207240819522855 0.5772784374275386 0.0
0.3520131451607586 0.5263918604440553 0.0
0.8573528491808811 0.6709738722470224 0.0
0.1797236573643203 0.460867988842514 0.0
0.5540828191547277 0.6661566975721369 0.0
1.158039843450239 0.7357536542887966 0.0
0.08638006908591334 0.286237566592474 0.0
0.790861820497242 0.6466611559014377 0.0
0.5362079962218838 0.8121454698907893 0.0
0.9405172130232713 0.6862060282668497 0.0
0.6039359324506977 0.711463595189489 0.0
0.4440093493753478 0.6096873538428137 0.0
0.5500746279087338 0.7620941994763282 0.0
0.2578504496023611 0.5739900063885278 0.0
0.502526452350101 0.6209820553182169 0.0
0.6799833858912959 0.7033681517905728 0.0
0.7183487148906835 0.7518430858176317 0.0
0.8006701240044786 0.8118713608014352 0.0
0.1304684854221093 0.3934039266496895 0.0
1.00789495394612 0.7937868725857601 0.0
0.696960396255943 0.893370944718147 0.0
0.8258315165019564 0.7538365084989149 0.0
0.8462950259502577 0.775614153529746 0.0
0.4082018839227037 0.6749460331934272 0.0
0.7025889307788081 0.8378536687159448 0.0
0.4666676520109517 0.6984557076050861 0.0
[...]
POINT_DATA 531

VECTORS Velocity float
0.0000000000000000 1.0000000000000000 0.0
0.0000000000000000 1.0000000000000000 0.0
2.6381905660288276 -0.9593303176381955 0.0
1.7819792715434570 1.0217177327063276 0.0
0.0000000000000000 1.0000000000000000 0.0
0.0000000000000000 1.0000000000000000 0.0
0.0000000000000000 1.0000000000000000 0.0
0.0000000000000000 1.0000000000000000 0.0
0.0000000000000000 1.0000000000000000 0.0
0.0000000000000000 1.0000000000000000 0.0
0.0000000000000000 1.0000000000000000 0.0
0.0000000000000000 1.0000000000000000 0.0
0.0000000000000000 1.0000000000000000 0.0
0.0000000000000000 1.0000000000000000 0.0
0.0000000000000000 1.0000000000000000 0.0
0.0000000000000000 1.0000000000000000 0.0
0.0000000000000000 1.0000000000000000 0.0
0.0000000000000000 1.0000000000000000 0.0
0.0000000000000000 1.0000000000000000 0.0
0.0000000000000000 1.0000000000000000 0.0
0.0000000000000000 0.0000000000000000 0.0
0.0000000000000000 0.0000000000000000 0.0
0.0000000000000000 0.0000000000000000 0.0
0.0000000000000000 0.0000000000000000 0.0
0.0000000000000000 0.0000000000000000 0.0
0.0000000000000000 0.0000000000000000 0.0
0.0000000000000000 0.0000000000000000 0.0
0.0000000000000000 0.0000000000000000 0.0
0.0000000000000000 0.0000000000000000 0.0
0.0000000000000000 0.0000000000000000 0.0
0.0000000000000000 0.0000000000000000 0.0
0.0000000000000000 0.0000000000000000 0.0
0.0000000000000000 0.0000000000000000 0.0
0.0000000000000000 0.0000000000000000 0.0
0.0000000000000000 0.0000000000000000 0.0
0.0000000000000000 0.0000000000000000 0.0
0.0000000000000000 0.0000000000000000 0.0
0.0000000000000000 0.0000000000000000 0.0
0.0000000000000000 0.0000000000000000 0.0
2.6783008704949971 -1.7943035928182678 0.0
3.6707167686685436 -2.3036481416125500 0.0
3.7614843066975183 -2.2272423281266756 0.0
3.7623383741288001 -1.9753922136331885 0.0
3.8540664140382295 -1.7620095475327835 0.0
3.9586765894458114 -1.4630060340691298 0.0
4.0200255567901975 -1.3108124637019332 0.0
4.1480071663006735 -1.0870641841099495 0.0
4.1349329239743335 -0.7939268871145142 0.0
4.1195043627757988 -0.5298200764798675 0.0
3.9876301837217185 -0.2359599220513034 0.0
3.7674428790625107 0.0618157469323304 0.0
3.5780425866857639 0.2934907431235642 0.0
3.2165578864278914 0.5418237436125211 0.0
2.5942003604681476 1.0889609877326010 0.0
1.7548681855737980 0.9413012230065408 0.0
0.0000000000000000 0.0000000000000000 0.0
0.0000000000000000 0.0000000000000000 0.0
0.0000000000000000 0.0000000000000000 0.0
0.0000000000000000 0.0000000000000000 0.0
0.0000000000000000 0.0000000000000000 0.0
0.0000000000000000 0.0000000000000000 0.0
0.0000000000000000 0.0000000000000000 0.0
0.0000000000000000 0.0000000000000000 0.0
0.0000000000000000 0.0000000000000000 0.0
0.0000000000000000 0.0000000000000000 0.0
0.0000000000000000 0.0000000000000000 0.0
0.0000000000000000 0.0000000000000000 0.0
0.0000000000000000 0.0000000000000000 0.0
0.0000000000000000 0.0000000000000000 0.0
0.0000000000000000 0.0000000000000000 0.0
0.0000000000000000 0.0000000000000000 0.0
0.0000000000000000 0.0000000000000000 0.0
0.0000000000000000 0.0000000000000000 0.0
0.0000000000000000 0.0000000000000000 0.0
0.0000000000000000 0.0000000000000000 0.0
0.0000000000000000 0.0000000000000000 0.0
0.0000000000000000 0.0000000000000000 0.0
0.0000000000000000 0.0000000000000000 0.0
0.0000000000000000 0.0000000000000000 0.0
0.0000000000000000 0.0000000000000000 0.0
0.0000000000000000 0.0000000000000000 0.0
0.0000000000000000 0.0000000000000000 0.0
0.0000000000000000 0.0000000000000000 0.0
3.9902603978239610 2.6034761244585281 0.0
4.2924902295331444 2.1434345719033043 0.0
3.9141157220471778 1.1776847739011493 0.0
3.8361627455409213 2.2073848878328031 0.0
3.8183957925761480 2.9209763945808387 0.0
3.4441790385603688 0.0825394592827523 0.0
3.9081861936582518 3.4775203793780234 0.0
3.7698841881468508 2.4445909777904524 0.0
3.7475009344074515 1.9467826080200237 0.0
3.5736293539627071 1.7335219705908365 0.0
2.8453117290947318 1.8058794445212929 0.0
3.3601047644272213 1.3736543864902746 0.0
3.2254182616982416 1.6705153420479191 0.0
3.1618629522608064 2.3487530180896248 0.0
3.2668222741757340 2.5092339561650672 0.0
3.0279596606826606 -0.4943237411146962 0.0
3.6098797289392883 3.8488347784298407 0.0
2.5019370053640788 2.1154313871333894 0.0
2.9170769977639930 1.4053014178000747 0.0
3.9193824470555469 0.5424833911260299 0.0
2.3464957659189536 0.3686314674439785 0.0
3.6723836031944699 1.2257976206003067 0.0
2.7992420898244781 2.6325161114578317 0.0
3.4916932565103256 4.5880016645155148 0.0
3.6306623970440062 2.6434501682040090 0.0
2.2650484369778665 1.3320419299549919 0.0
4.3341500507847410 2.3447853870882724 0.0
4.0145230610543825 2.5834802831615766 0.0
2.8544991761046070 -0.7921902230546165 0.0
4.1180314188580818 1.8005968302088424 0.0
2.5172159678936419 2.0358423060805553 0.0
2.5425469557003688 1.0662961974474356 0.0
3.9275305176423045 2.7316484911384746 0.0
2.7061440419886265 1.3439002299363347 0.0
3.8233209260772951 -0.4173520381445826 0.0
1.9782772310536771 1.4409059642611386 0.0
2.2458302805932155 0.6151198668103660 0.0
2.1003911427311190 0.0441451195073833 0.0
4.1653004378580949 2.4741222278110522 0.0
2.6125753151770019 1.7099706277606141 0.0
2.8006059897675724 2.4547893415059669 0.0
2.9347257328391403 4.7381409527841427 0.0
2.3702069654422675 1.2649795162783783 0.0
2.5248137429885280 2.8798823611202486 0.0
2.1687008834843913 1.6418271630150638 0.0
3.2861544827609390 3.5020254947758662 0.0
1.8137598964140969 1.7688893058724451 0.0
3.9775233752985817 -0.0811308926377985 0.0
3.5044525746667414 2.2739132801706101 0.0
3.8739344218427179 2.5703263382751689 0.0
3.9927007239239041 1.9917198833601850 0.0
4.0505485620693786 2.0954167974520059 0.0
3.6382734944856452 0.4583892086996357 0.0
3.1052358865939858 1.5888199119712267 0.0
1.6452608362638881 1.6773167171378760 0.0
2.2563121495281000 1.0726377749138016 0.0
2.8662430561030909 -1.0470276410838437 0.0
3.7211792370285899 2.5599522256924554 0.0
3.8880660930233266 1.9846272684628827 0.0
1.4301025606857509 0.0766532039574011 0.0
2.0094889107102034 1.0891807485875737 0.0
3.7347482658887077 3.1690429809272254 0.0
1.1160353440892059 0.4435804093222037 0.0
1.8313771160535437 3.2599895501275564 0.0
1.4821263336584520 0.8589077045157232 0.0
3.9856600589287874 1.5693115065660002 0.0
1.8405573364134360 2.2639474114154985 0.0
1.0957104633468011 0.7290747367516867 0.0
2.1226956878146286 2.3897345121987494 0.0
2.7846781470017334 3.3820678295145838 0.0
3.3447069790500330 1.0946129199204166 0.0
3.8030890597317617 0.6567937738731406 0.0
3.5840555547682142 2.2340298815244175 0.0
3.7621106419363404 -1.1220439332923655 0.0
3.3002926302742988 1.7775246894453673 0.0
4.0284229785386954 1.7866111553276800 0.0
1.6448803343040042 -0.3325302873165907 0.0
1.4079530213385962 1.5086142212043905 0.0
3.4466853236649495 2.5953270597647977 0.0
1.2840040041863456 1.8016573673001715 0.0
3.6009115395005873 2.7465387177467790 0.0
3.9242761581370154 1.0821420757899369 0.0
1.4731606166943478 0.7803940380036379 0.0
1.3702676157477378 1.3076103814465239 0.0
3.9137612395201615 -0.9184543979195208 0.0
1.8247936962395899 1.8424692870008530 0.0
1.5156868211508812 0.8474583843839626 0.0
1.2629948537389344 0.1583868587094419 0.0
3.7148981873557783 2.3636875415029026 0.0
3.9939080637132367 0.1627933788140052 0.0
3.1533585931242558 -0.3016816637249514 0.0
1.5934207738327941 3.1018867463332791 0.0
1.1952402456840459 1.0139955561074601 0.0
4.1108928065027897 2.1472294895543671 0.0
1.3127986572714672 0.7936667699567852 0.0
1.5297088220080142 2.7802614161336203 0.0
3.6659517791351224 2.0916362528928523 0.0
1.3337771293062772 -0.2668318801112816 0.0
3.3400589945679124 0.7998737152002672 0.0
3.1587671575911247 2.4978815921954216 0.0
2.6859414606153877 -1.4074918845441262 0.0
4.0846653912817210 2.6089026261403889 0.0
3.4373343832722636 1.9560990358298707 0.0
3.8166592379471669 0.2240040661218066 0.0
2.0000931204256438 3.0560153277389936 0.0
3.6267549904292933 3.6733830959124223 0.0
2.4430554105462172 4.0337989862858068 0.0
0.8443202858885759 0.8011775250640039 0.0
3.7613183857772827 2.5525073297220020 0.0
1.0704967113722950 0.5658638103435789 0.0
2.8700172764966618 0.2549608346367764 0.0
2.1200905009972986 2.2098995812869311 0.0
3.5948101845535017 2.8406791718517010 0.0
3.1055305514522047 1.0489286354911640 0.0
0.8305067461090868 0.5972625464062704 0.0
4.1503872361254572 2.0483029904393075 0.0
4.1025239768232016 -0.4420228388812238 0.0
3.5579327450612537 1.6314431280769914 0.0
2.2867303081308434 1.5808337367376433 0.0
0.7641786057325359 3.4574472034743762 0.0
0.9884346682414417 0.8499779478627676 0.0
4.2430458401242479 2.0146311315044079 0.0
1.3050972864518329 1.0410621378051246 0.0
1.2190363067718142 0.4740728668020038 0.0
3.1354544931089294 1.8557520870783741 0.0
1.4082330835116075 -0.2949536043950871 0.0
4.2609977614860455 2.4475092412766490 0.0
3.7294974842877067 1.6764824378939926 0.0
3.1596835290487344 2.2124787590652031 0.0
2.8939096024456590 3.0005221845712886 0.0
3.9303737232079703 3.2631361682796216 0.0
0.9588580553164745 0.3004476621427377 0.0
1.7262003520395739 2.4100389608755100 0.0
4.0566313796620568 2.5492534058568621 0.0
3.6904648991304261 -1.3998734899760590 0.0
1.2131527977983925 3.3076046173977915 0.0
1.1619157451430671 0.4751115530089526 0.0
0.9537040280422038 0.3805572743935415 0.0
0.9050573542641516 0.0543589830361777 0.0
4.1139046954318124 2.4663672653399078 0.0
3.8330647789681755 2.8498540036143849 0.0
2.7606247887050706 1.6258961434876535 0.0
1.0306553450378280 1.4843127995186700 0.0
3.9540703344822146 2.6525939136037278 0.0
4.1536733621425173 2.3562177476649731 0.0
4.2995758481575796 2.2060534199447956 0.0
4.0822840876070448 1.9279197360903206 0.0
1.6335584169557638 2.3202398725908866 0.0
3.8028035852726152 -0.1554471564197153 0.0
1.2231389415062093 0.6152131502041858 0.0
3.8624899525051650 1.5353769810416920 0.0
3.9466655184637807 1.4159545744856519 0.0
2.5602275591198111 1.7565485397654417 0.0
3.0838404850113919 1.5153175752904615 0.0
3.0749921672323861 2.0876450846010894 0.0
3.0588413330107751 1.9361498013046254 0.0
3.3515402268641830 1.7637641087740161 0.0
4.0027577015679690 2.2640196594107884 0.0
1.0545954971232379 0.1463616081607690 0.0
2.8649239314392330 2.1265080939769212 0.0
2.4189280848043850 0.8508269993257414 0.0
2.7410960706616891 1.9927398564946426 0.0
2.4334936046991538 -0.0389558846287335 0.0
4.1350310260938414 -0.7483951044634390 0.0
0.9397257548408207 0.9565147783412524 0.0
2.3130000326547195 -1.0760846025995594 0.0
4.0677054505941452 2.5914932554928662 0.0
2.8367222192002703 1.4274223885662616 0.0
3.1217731420053099 1.8537096900760281 0.0
3.4918056891982374 3.9778885004865696 0.0
0.5229560559184436 1.6424013842520073 0.0
3.7467382544166510 2.7517147103421213 0.0
1.5494681511757016 1.8408464492439793 0.0
2.9164918326587519 -0.6970437909348349 0.0
3.7838910475135008 0.8297456384403321 0.0
3.6187061758043746 2.4711198056821337 0.0
0.6335193847768485 0.5012508170704648 0.0
1.2011760053700227 2.2395803027888386 0.0
3.1055714123937235 2.7516713058934901 0.0
1.7180118897088921 2.9227379451491902 0.0
1.0181723322902509 1.8913709953252513 0.0
0.8145053596203427 1.5834453770039381 0.0
1.6637137789631018 3.0813955809764160 0.0
1.4419825749022552 1.1776956859342702 0.0
2.1903232535151744 -1.4148796680401994 0.0
2.1177479055511781 1.5747487782071692 0.0
0.6663625172814176 0.2934844153832978 0.0
0.7630315197346469 0.5777236475483648 0.0
3.9202891035987086 3.4622743908555695 0.0
1.2641440634260073 -0.0777774529471014 0.0
3.3717410238490277 0.8366246226420465 0.0
4.0739181204374253 -0.1612948190881848 0.0
3.8915455469640112 2.3993388339292818 0.0
1.1250736507362440 3.3292141619393285 0.0
2.5238280299270226 0.6926073226861005 0.0
0.5961021103902961 0.3587656643985997 0.0
3.4667002326171659 -0.4755602182929853 0.0
3.6862863639637529 2.6481389303053247 0.0
0.7510107378020152 -0.0148166093045904 0.0
2.5912481662343581 -0.2638625839866190 0.0
2.6573290636122300 1.4272281456902345 0.0
3.6936337041021727 -1.7342935460074391 0.0
0.8018815980152207 0.1059696381675865 0.0
2.4300564496955963 1.5388261987822218 0.0
2.8539340219122553 2.4188141472495004 0.0
2.2162278619888540 1.9596058030562153 0.0
3.9118595794579156 2.5326059834379797 0.0
3.7770283018797732 1.9323816487534009 0.0
2.5028573229276119 1.1014552308588459 0.0
3.7092277694710196 3.7864915986750236 0.0
4.1867686364025474 2.1169366008911163 0.0
0.9355089128493235 0.5962194973232622 0.0
3.1438729856553076 3.2362353540949629 0.0
2.7181756318602734 1.6668089693567072 0.0
4.2209498407491806 2.2011065089239659 0.0
4.1400842122829742 2.0209582809699720 0.0
3.0985313237894956 2.1898371793535558 0.0
3.7362252062038164 2.5800907509003213 0.0
1.2608780462666429 -0.7696503057030911 0.0
3.3013453001782409 0.6476223819701302 0.0
3.9829869435970267 0.1484045609551845 0.0
1.6698221822474784 4.0683861173013138 0.0
2.2520771779197100 1.8659815264438750 0.0
0.7067229174386569 0.6016128278384267 0.0
3.9998045605357202 2.5965805054172084 0.0
4.2883078549176892 2.1494242407365647 0.0
3.9141691641310667 1.1885368218419483 0.0
3.8195809076474312 2.1975739826005087 0.0
3.8226436204854393 2.9126544639773266 0.0
3.4445365317394403 0.0873148140614203 0.0
3.9096500052966552 3.4745787014190337 0.0
3.7901802459777816 2.4554968785960969 0.0
3.7293824405501912 1.9540718529729220 0.0
3.5958376896455149 1.7472489019486239 0.0
2.8258494472342912 1.7893819178825612 0.0
3.3767859376995806 1.3858144208019412 0.0
3.2011412810634159 1.6610675743132870 0.0
3.1531405835716031 2.3321629333904212 0.0
3.2837704725954060 2.5058940167089179 0.0
3.0279998793410843 -0.4942067694612246 0.0
3.6098026671850398 3.8490429110631887 0.0
2.5224788881260216 2.1217639507857826 0.0
2.8953533033676750 1.4010363104436467 0.0
3.9147560225764466 0.5489915884204093 0.0
2.3532296869683327 0.3737782774828449 0.0
3.6607492551572927 1.2315123620622987 0.0
2.7984476673208283 2.6270195221527715 0.0
3.4915980423861104 4.5880965451575593 0.0
3.6354977346742841 2.6413142005045507 0.0
2.2428727796032719 1.3190887756495620 0.0
4.3339019881927499 2.3472598986220987 0.0
4.0124710254328804 2.5771693292524018 0.0
2.8544457304405713 -0.7923049128982782 0.0
4.1159259405629349 1.8131423230150889 0.0
2.5120879198137152 2.0260753411938897 0.0
2.5638793915260885 1.0766383124363181 0.0
3.9347960348903106 2.7202608255730252 0.0
2.7307151429700318 1.3566949309667722 0.0
3.8232386276080899 -0.4162300973467158 0.0
1.9630921475828826 1.4276104752169640 0.0
2.2590128604556283 0.6207118217937685 0.0
2.1011668151443241 0.0455563317385057 0.0
4.1756359718478233 2.4807212681980331 0.0
2.5961505774603233 1.7094162880538679 0.0
2.8111718427933989 2.4538648336516133 0.0
2.9347127792982795 4.7381542635195002 0.0
2.3480300147703974 1.2534683952583150 0.0
2.5252589099101490 2.8798210061888860 0.0
2.1894016175648239 1.6555856772097577 0.0
3.2863282256730155 3.5015121015383759 0.0
1.8303294435923512 1.7710113097360567 0.0
3.9755471818383232 -0.0782483155158971 0.0
3.4920028978165214 2.2569946392924827 0.0
3.8910143449066408 2.5720182668774809 0.0
4.0081458649713948 2.0024664535439158 0.0
4.0329769378658984 2.0995700229387735 0.0
3.6376817675864155 0.4653846850900160 0.0
3.0943594681395310 1.5916231057454600 0.0
1.6452364310102148 1.6762317271261016 0.0
2.2351439105473041 1.0648884242355723 0.0
2.8662193376510348 -1.0471054694055351 0.0
3.7377156929720425 2.5582135202402503 0.0
3.8667731662741027 1.9794878607646615 0.0
1.4335078592494861 0.0795262522023769 0.0
2.0293604547919868 1.0995721785890613 0.0
3.7373261388897117 3.1636664975758917 0.0
1.1279442730588269 0.4486933646153096 0.0
1.8313753097930217 3.2599926331701203 0.0
1.4663550013959634 0.8486420643717856 0.0
3.9758391539578235 1.5795538579003334 0.0
1.8406209702995058 2.2642224508138309 0.0
1.0887104566972550 0.7224632293785326 0.0
2.1245277334852037 2.3888723124065496 0.0
2.7843455254410285 3.3820720607951986 0.0
3.3549084679155889 1.1055307121580586 0.0
3.7970463812379758 0.6608074297628449 0.0
3.5679618628668450 2.2200085156184661 0.0
3.7622430467071051 -1.1222448805833727 0.0
3.2765365248734759 1.7661252188649064 0.0
4.0373858462879442 1.7986455465519793 0.0
1.6446375927806041 -0.3326086308650802 0.0
1.4218190070959602 1.5141125298411373 0.0
3.4448265951196566 2.5831660938837828 0.0
1.2933686502902582 1.8020727190323238 0.0
3.6116512564744796 2.7404963618606830 0.0
3.9171951614350533 1.0914342269011912 0.0
1.4564372918367143 0.7722445123917606 0.0
1.3675723381591494 1.3028039555489310 0.0
3.9140005632628556 -0.9184252152205775 0.0
1.8250042301459872 1.8427662040577895 0.0
1.5036077965877559 0.8454187253493358 0.0
1.2697919698151467 0.1616680228460533 0.0
3.7028610529936081 2.3501738862951305 0.0
3.9908416595523879 0.1651584276142897 0.0
3.1537418936421457 -0.2994236034118960 0.0
1.5934212075926766 3.1018861026211964 0.0
1.1819169632145203 1.0020906473570612 0.0
4.0951856221279668 2.1438323558880472 0.0
1.3293850560696476 0.8032861053537422 0.0
1.5293699583383322 2.7801379704794171 0.0
3.6887482119711463 2.1045508527421330 0.0
1.3336539945181209 -0.2665408007210372 0.0
3.3448696601236154 0.8092993419567734 0.0
3.1581870946626469 2.4883672931755596 0.0
2.6859407289900687 -1.4074965478509605 0.0
4.0945157557054852 2.6128644449435443 0.0
3.4160840794815561 1.9565474607023814 0.0
3.8147870433814388 0.2287938636613510 0.0
2.0000751297952482 3.0560690592433875 0.0
3.6271631912639823 3.6726906539767459 0.0
2.4429988479589024 4.0338190385004742 0.0
0.8551536926587933 0.8097390877901955 0.0
3.7589663566019027 2.5375550840576482 0.0
1.0564722565142379 0.5586338136611185 0.0
2.8732086410718214 0.2602465635245879 0.0
2.1259188093643866 2.2094348731530444 0.0
3.6025538491957354 2.8359680199688300 0.0
3.0982369514881167 1.0518330539754088 0.0
0.8225601277652059 0.5904028942025233 0.0
4.1643407141891560 2.0584103042029613 0.0
4.1019347460796114 -0.4411041919918245 0.0
3.5768061915240148 1.6439403468319673 0.0
2.2781179637602866 1.5813078020144342 0.0
0.7641786057325362 3.4574472034743762 0.0
0.9837683200882998 0.8441745917220747 0.0
4.2378064277891445 2.0236108097112724 0.0
1.3044779134756386 1.0392541007435805 0.0
1.2354019373514076 0.4813187041998495 0.0
3.1118325170308263 1.8420255259820721 0.0
1.4081342730826192 -0.2949755686634863 0.0
4.2590991872725024 2.4479986571447534 0.0
3.7136949024129779 1.6823619013115272 0.0
3.1825738189724619 2.2225131785435042 0.0
2.8936971990373705 2.9967076520704223 0.0
3.9334964220013169 3.2607980633294402 0.0
0.9682654778631683 0.3039382284652816 0.0
1.7262064794100132 2.4101760150493696 0.0
4.0605089875299827 2.5433093280687156 0.0
3.6905043326248141 -1.4000067896533737 0.0
1.2131529794937057 3.3076046236333081 0.0
1.1755550384841558 0.4812312119080677 0.0
0.9399706163290867 0.3744858965117577 0.0
0.9098121374396914 0.0559827261189995 0.0
4.1105019147661270 2.4612073162961403 0.0
3.8393614855774487 2.8383845656737736 0.0
2.7385718240293331 1.6110642416705014 0.0
1.0308576141107242 1.4840422975612508 0.0
3.9637623588371205 2.6430753043321435 0.0
4.1666192162028910 2.3651849161122720 0.0
4.3014259662710952 2.2111009123270673 0.0
4.0689872850602153 1.9371190427454654 0.0
1.6335529101952568 2.3202491788188895 0.0
3.8022370702331276 -0.1522412092766195 0.0
1.2110332772283934 0.6106621438875639 0.0
3.8700336963240418 1.5479911338344992 0.0
3.9470671053178195 1.4295822385089396 0.0
2.5526325830966345 1.7453617941845108 0.0
3.0602066631625662 1.5100050290019156 0.0
3.0620655861911361 2.0711922560638869 0.0
3.0838690747776440 1.9506507967147815 0.0
3.3743449468093445 1.7760902172077311 0.0
3.9853551527840700 2.2582296590508948 0.0
1.0561316037654072 0.1473170953042178 0.0
2.8854703136560049 2.1269514345496217 0.0
2.4352724299188213 0.8600634597898481 0.0
2.7238988400312452 1.9768671049292366 0.0
2.4355680009240217 -0.0355430522903794 0.0
4.1350885932390176 -0.7482041455126411 0.0
0.9399503476155815 0.9567046149142774 0.0
2.3130012101519903 -1.0760823206045986 0.0