# vtk DataFile Version 3.0
LucasCarvalhoTCC Results
ASCII

DATASET POLYDATA
FIELD FieldData 1
TIME 1 1 double
2.1

POINTS 531 float
0.02430399999999999 0.16425 0.0
0.5913384 0.481878 0.0
1.30475 0.591832 0.0
0.774126 0.951272 0.0
0.04779564148251592 0.1966194329439859 0.0
0.0726092153537953 0.2279866320496896 0.0
0.09876577335895967 0.2582426022760065 0.0
0.1262817198684718 0.2872673048853742 0.0
0.1551671626852806 0.3149288071400502 0.0
0.1854238368919928 0.3410826624766006 0.0
0.2170424591499632 0.3655716640299072 0.0
0.2499995164635996 0.3882263409476824 0.0
0.2842534387828506 0.4088665906889567 0.0
0.3197403359862048 0.4273050841371062 0.0
0.3563695945475563 0.4433531534921038 0.0
0.3940201673622058 0.4568300511916809 0.0
0.4325386107291805 0.4675762214989666 0.0
0.4717406913237268 0.4754709112408955 0.0
0.5114182513144845 0.480453442081874 0.0
0.5513531678859215 0.4825464217651069 0.0
0.6182637923774223 0.5096055604109244 0.0
0.647389101376845 0.5350126187545199 0.0
0.6784752958296183 0.5579802184492302 0.0
0.7112421079139344 0.5784810076698811 0.0
0.7454110434104482 0.5965507527581431 0.0
0.7807301979183381 0.6122562812860965 0.0
0.8169827939052532 0.6256694297140926 0.0
0.853985522124928 0.6368498290413532 0.0
0.8915818964261243 0.6458353363890481 0.0
0.9296339776508085 0.6526379336565091 0.0
0.9680139759519513 0.6572432424840469 0.0
1.006596418266983 0.659612648128084 0.0
1.045251165872634 0.6596877658251245 0.0
1.083837680945672 0.657397570658483 0.0
1.122201320191055 0.6526688455666412 0.0
1.160173053543044 0.6454405726452737 0.0
1.197574286953346 0.6356824063786186 0.0
1.23422961949795 0.6234159704281613 0.0
1.26998758503999 0.6087366500005643 0.0
1.285086682927543 0.6256533177085738 0.0
1.263669745906668 0.6583917156018083 0.0
1.240480125919214 0.6898988493917133 0.0
1.215532715641304 0.7200329197235763 0.0
1.188869833862339 0.7486599839005789 0.0
1.160556835593143 0.7756559317113654 0.0
1.130680194163798 0.8009104211039757 0.0
1.099347083827048 0.8243335727704395 0.0
1.066684425336412 0.8458643604021228 0.0
1.03283497048792 0.8654772531176074 0.0
0.9979492572630678 0.8831824104874066 0.0
0.9621749986495024 0.8990166556695112 0.0
0.9256475378616493 0.9130272060048579 0.0
0.8884846540507749 0.9252538945090274 0.0
0.8507866567183312 0.935715378288671 0.0
0.8126405010322847 0.9444016349017643 0.0
0.7365055179612304 0.9396161853607135 0.0
0.699310855231089 0.9266666891603924 0.0
0.6626179171945521 0.9123577070090924 0.0
0.6264901449910028 0.8966765244755546 0.0
0.5909789825447118 0.8796450886595113 0.0
0.556124897941028 0.8613059841617771 0.0
0.5219601957009091 0.8417124664434518 0.0
0.4885110616878257 0.8209207172498462 0.0
0.4558007060429968 0.7989848675704875 0.0
0.4238520247653796 0.775953675763176 0.0
0.3926900138417566 0.7518687036338616 0.0
0.3623437622133722 0.7267636709390595 0.0
0.3328479550295906 0.7006647540504483 0.0
0.3042438201183181 0.6735915983461908 0.0
0.2765795358619001 0.6455588748284606 0.0
0.2499101143933102 0.6165781952942546 0.0
0.2242967982692083 0.5866601984136335 0.0
0.1998060807431611 0.5558166834807132 0.0
0.1765083808984156 0.5240625786010467 0.0
0.154476512720734 0.491417660368959 0.0
0.133784033184808 0.457907916333494 0.0
0.114503564227142 0.4235664945146766 0.0
0.09670517293008124 0.3884342245925089 0.0
0.0804548910754031 0.3525597611689231 0.0
0.06581337946329963 0.3159993090744527 0.0
0.05283482490365372 0.2788161107032479 0.0
0.0415660226296666 0.2410796291505872 0.0
0.03204569406625649 0.2028646095712164 0.0
0.5272009874003867 0.6419624505772817 0.0
0.7421848286576707 0.7716726266421574 0.0
0.8789503364783713 0.7829234141383637 0.0
0.6149390992905563 0.7449438030688011 0.0
0.4064556042659638 0.5942834991165423 0.0
0.9875021850865396 0.7666507358101158 0.0
0.3188065960661005 0.539594034984892 0.0
0.61365100263957 0.6399487878797632 0.0
0.8049090660915541 0.8464379870891131 0.0
0.7099820328572021 0.6828840522539854 0.0
0.5239467234991928 0.7406922291088611 0.0
0.8154056325591208 0.7211774015928547 0.0
0.6676178829014909 0.8152713180209475 0.0
0.4416080359619968 0.674360953773491 0.0
0.489443615375965 0.5654986742123573 0.0
1.076665773779852 0.7387182918829318 0.0
0.250390543112057 0.4877450112830265 0.0
0.5736819937919005 0.5790366884881447 0.0
0.7263706755366466 0.8615301097563091 0.0
0.940143307772686 0.8233944909985552 0.0
0.927065543677544 0.7236459161626674 0.0
0.8744389806957806 0.8609114380468947 0.0
0.336888362650554 0.6081958070931937 0.0
0.2030757334857187 0.4383942902513459 0.0
0.3861483329720647 0.5255533415902591 0.0
0.5621001921466506 0.7923778419149285 0.0
0.6822897332295245 0.7428043323059399 0.0
0.5764061681675353 0.6881266532454204 0.0
1.129195449682892 0.7163224153578123 0.0
0.8157794419559141 0.7831214907157077 0.0
0.3806644703311284 0.6554275822782399 0.0
0.7695737871052837 0.669593045341503 0.0
0.4699375460410929 0.6217118815516158 0.0
0.6830867370872363 0.630350317562806 0.0
1.040416897214502 0.7929392348941093 0.0
0.4604428393605979 0.7321209818568342 0.0
0.8729552856459739 0.7015083313474691 0.0
1.017010765275644 0.7166925631396708 0.0
0.6458785458483771 0.6946878992565794 0.0
0.7733575582969163 0.8941098392103913 0.0
0.4457537579383052 0.5273353624588528 0.0
0.163830623786951 0.3903175742448083 0.0
0.6095823984734953 0.8256600013628639 0.0
0.2618074352614998 0.5435604438425528 0.0
0.6287880420949764 0.5875838132975476 0.0
0.3100402147222924 0.4835410260423071 0.0
0.5422177893302824 0.5343158927797464 0.0
0.9964262112680041 0.8213447667248638 0.0
0.4971609598823845 0.6906859160718212 0.0
0.5740517260168769 0.633982031239429 0.0
0.7423299505107201 0.7218768583704394 0.0
0.767147744476665 0.819658485932403 0.0
0.9427329070375209 0.7774595780066723 0.0
0.8375285793481674 0.8869398470561132 0.0
0.2879426409425497 0.5872676364411625 0.0
0.6797562629663748 0.8647676397847667 0.0
1.171674168522591 0.6949964056806914 0.0
0.5261010885606964 0.6055079299963303 0.0
0.7081534744446967 0.8078672678314597 0.0
0.9681672688626206 0.705385299758921 0.0
0.7364069054947873 0.6432919177737106 0.0
0.363826821075015 0.5678764295233764 0.0
0.826170216989844 0.6605791783255148 0.0
0.1284439337099834 0.3602715082199688 0.0
0.518140828090112 0.783905985497134 0.0
0.8452908336054504 0.8167586152211004 0.0
0.2015204468558833 0.492088055688788 0.0
0.4005883523205732 0.7121294304856254 0.0
0.3551392316798573 0.4864133323669936 0.0
0.2501727034998737 0.4443035857235296 0.0
0.857938396055507 0.7390317828783199 0.0
0.9245301815433076 0.8668102132501951 0.0
0.5702050292970205 0.7323438487067678 0.0
1.111607633075016 0.759318252473435 0.0
0.6317193755596126 0.7853891653733797 0.0
0.7921381265818805 0.7497379312370454 0.0
1.088942426366261 0.7015435214091311 0.0
0.5818207607488639 0.5352340257544296 0.0
0.4203532416309484 0.6369649631143086 0.0
0.4854818714173937 0.5131439318707094 0.0
0.4475429831528036 0.5690430472086269 0.0
0.8968753306595262 0.8225547516037004 0.0
0.6339557898063448 0.8543470494763272 0.0
0.3416564411796998 0.6516449771136894 0.0
1.082970576264455 0.7856036465430698 0.0
0.2255204648032354 0.5229464838393291 0.0
0.7335043541589261 0.9012744999286941 0.0
0.9097052989734319 0.6921177492721042 0.0
0.5363428275528405 0.6992389299864537 0.0
0.9657777897300287 0.8588269742066746 0.0
1.025947476617909 0.7556651119714124 0.0
0.1090829970454354 0.3226173037985549 0.0
0.4836644525169279 0.7663103281018557 0.0
0.6910856326166581 0.777867529208468 0.0
0.6694391877434097 0.5946719355048008 0.0
0.2954883530575775 0.4501042133334518 0.0
0.6746032498128595 0.6643957640016517 0.0
1.054636636429828 0.6974583960183274 0.0
0.8939255235163368 0.7470597914537064 0.0
0.3749741568555516 0.6190655430398917 0.0
1.204101441114554 0.6801433534918062 0.0
0.6130053345415899 0.6785345531932346 0.0
0.7679719108452487 0.8562682874000032 0.0
0.9710820219997449 0.8008372590855476 0.0
0.1608022352294362 0.4242591696906621 0.0
0.2865399820604418 0.5141369963640697 0.0
0.1962258775846918 0.4008383427744516 0.0
0.6210920174972845 0.5516143721732873 0.0
0.4843009180093644 0.6583977883024127 0.0
0.5695029195102991 0.8267073580550881 0.0
0.9562891163300477 0.7436031251145003 0.0
0.4174190173896447 0.5044019081507806 0.0
0.410860431802698 0.5535781448116232 0.0
0.8709320861791604 0.9002602580953145 0.0
0.427354757192076 0.7399041791280969 0.0
0.7107884943357746 0.7172753954970394 0.0
1.030382288537246 0.8267335242583146 0.0
0.7737440530215844 0.7115751739064536 0.0
0.8042035044852396 0.9123190309183211 0.0
0.0480920891272324 0.2181807374272496 0.0
0.3695079235280397 0.6886893012630373 0.0
0.773516204411121 0.7830673827025234 0.0
0.302776671534508 0.6210168062901616 0.0
0.7150573728414059 0.6149413270404035 0.0
0.5863276441271683 0.769748656022605 0.0
1.143752049005473 0.6780480059671409 0.0
0.6477132714923303 0.7318578097016951 0.0
0.8380052680878572 0.8531154611905379 0.0
0.5966224054445893 0.6051703156405629 0.0
0.3207240819522855 0.5772784374275386 0.0
0.3520131451607586 0.5263918604440553 0.0
0.8573528491808811 0.6709738722470224 0.0
0.1797236573643203 0.460867988842514 0.0
0.5540828191547277 0.6661566975721369 0.0
1.158039843450239 0.7357536542887966 0.0
0.08638006908591334 0.286237566592474 0.0
0.790861820497242 0.6466611559014377 0.0
0.5362079962218838 0.8121454698907893 0.0
0.9405172130232713 0.6862060282668497 0.0
0.6039359324506977 0.711463595189489 0.0
0.4440093493753478 0.6096873538428137 0.0
0.5500746279087338 0.7620941994763282 0.0
0.2578504496023611 0.5739900063885278 0.0
0.502526452350101 0.6209820553182169 0.0
0.6799833858912959 0.7033681517905728 0.0
0.7183487148906835 0.7518430858176317 0.0
0.8006701240044786 0.8118713608014352 0.0
0.1304684854221093 0.3934039266496895 0.0
1.00789495394612 0.7937868725857601 0.0
0.696960396255943 0.893370944718147 0.0
0.8258315165019564 0.7538365084989149 0.0
0.8462950259502577 0.775614153529746 0.0
0.4082018839227037 0.6749460331934272 0.0
0.7025889307788081 0.8378536687159448 0.0
0.4666676520109517 0.6984557076050861 0.0
[...]
POINT_DATA 531

VECTORS Velocity float
0.0000000000000000 1.0000000000000000 0.0
0.0000000000000000 1.0000000000000000 0.0
2.6381949453919531 -0.9592656143495474 0.0
1.8367476625985812 1.0314432765455919 0.0
0.0000000000000000 1.0000000000000000 0.0
0.0000000000000000 1.0000000000000000 0.0
0.0000000000000000 1.0000000000000000 0.0
0.0000000000000000 1.0000000000000000 0.0
0.0000000000000000 1.0000000000000000 0.0
0.0000000000000000 1.0000000000000000 0.0
0.0000000000000000 1.0000000000000000 0.0
0.0000000000000000 1.0000000000000000 0.0
0.0000000000000000 1.0000000000000000 0.0
0.0000000000000000 1.0000000000000000 0.0
0.0000000000000000 1.0000000000000000 0.0
0.0000000000000000 1.0000000000000000 0.0
0.0000000000000000 1.0000000000000000 0.0
0.0000000000000000 1.0000000000000000 0.0
0.0000000000000000 1.0000000000000000 0.0
0.0000000000000000 1.0000000000000000 0.0
0.0000000000000000 0.0000000000000000 0.0
0.0000000000000000 0.0000000000000000 0.0
0.0000000000000000 0.0000000000000000 0.0
0.0000000000000000 0.0000000000000000 0.0
0.0000000000000000 0.0000000000000000 0.0
0.0000000000000000 0.0000000000000000 0.0
0.0000000000000000 0.0000000000000000 0.0
0.0000000000000000 0.0000000000000000 0.0
0.0000000000000000 0.0000000000000000 0.0
0.0000000000000000 0.0000000000000000 0.0
0.0000000000000000 0.0000000000000000 0.0
0.0000000000000000 0.0000000000000000 0.0
0.0000000000000000 0.0000000000000000 0.0
0.0000000000000000 0.0000000000000000 0.0
0.0000000000000000 0.0000000000000000 0.0
0.0000000000000000 0.0000000000000000 0.0
0.0000000000000000 0.0000000000000000 0.0
0.0000000000000000 0.0000000000000000 0.0
0.0000000000000000 0.0000000000000000 0.0
2.6783718178253815 -1.7945696575092180 0.0
3.6714817737148318 -2.3050102403661610 0.0
3.7581846963811762 -2.2275909833544949 0.0
3.7508803571865554 -1.9571992800141893 0.0
3.7889277618689263 -1.7010501470246220 0.0
3.8239327355259647 -1.3556969591501107 0.0
3.8298549551150467 -1.1441729885522307 0.0
3.8595364035065201 -0.8901583289440342 0.0
3.7454125068419235 -0.5582590209009891 0.0
3.6984858527810434 -0.3015726735447932 0.0
3.5834950393599643 -0.0420199485072283 0.0
3.4148135904886785 0.2074617713768673 0.0
3.2933379817057808 0.4077143466029013 0.0
3.0474217142665698 0.6031596838924365 0.0
2.5621843121757739 1.0662104330497457 0.0
1.8531599241668026 0.9420466975403806 0.0
0.0000000000000000 0.0000000000000000 0.0
0.0000000000000000 0.0000000000000000 0.0
0.0000000000000000 0.0000000000000000 0.0
0.0000000000000000 0.0000000000000000 0.0
0.0000000000000000 0.0000000000000000 0.0
0.0000000000000000 0.0000000000000000 0.0
0.0000000000000000 0.0000000000000000 0.0
0.0000000000000000 0.0000000000000000 0.0
0.0000000000000000 0.0000000000000000 0.0
0.0000000000000000 0.0000000000000000 0.0
0.0000000000000000 0.0000000000000000 0.0
0.0000000000000000 0.0000000000000000 0.0
0.0000000000000000 0.0000000000000000 0.0
0.0000000000000000 0.0000000000000000 0.0
0.0000000000000000 0.0000000000000000 0.0
0.0000000000000000 0.0000000000000000 0.0
0.0000000000000000 0.0000000000000000 0.0
0.0000000000000000 0.0000000000000000 0.0
0.0000000000000000 0.0000000000000000 0.0
0.0000000000000000 0.0000000000000000 0.0
0.0000000000000000 0.0000000000000000 0.0
0.0000000000000000 0.0000000000000000 0.0
0.0000000000000000 0.0000000000000000 0.0
0.0000000000000000 0.0000000000000000 0.0
0.0000000000000000 0.0000000000000000 0.0
0.0000000000000000 0.0000000000000000 0.0
0.0000000000000000 0.0000000000000000 0.0
0.0000000000000000 0.0000000000000000 0.0
3.7339849520078094 2.5039189631575955 0.0
4.0640296047922693 1.8982928645762200 0.0
3.8586595892799940 1.0580867886802174 0.0
3.7700555927882387 2.1677548616643798 0.0
3.7441771623951410 2.9004811166711320 0.0
3.6127372819137769 0.1554264056263872 0.0
3.8967514943601662 3.4953034796894658 0.0
3.6139254491444368 2.4056949588915106 0.0
3.6034883674477007 1.7059654117265655 0.0
3.5651444753119521 1.7008258854155978 0.0
2.9687428871701114 1.9281063478893301 0.0
3.5206503350369602 1.3143775451877757 0.0
3.3439182303697530 1.7039290620854235 0.0
3.1744400074168388 2.4230506090734214 0.0
3.2613396266377075 2.4109010802130495 0.0
3.1787310311457353 -0.4101156836621703 0.0
3.6013705156955300 3.8642887495111524 0.0
2.5865569825233252 2.1466710243613365 0.0
3.0800135479804029 1.4264134651301921 0.0
3.7251306419596899 0.5273332223287681 0.0
2.6985233854467623 0.4093589574635675 0.0
3.4606218314701196 1.0893734510001196 0.0
2.8207970271771154 2.6867815459277531 0.0
3.4908435900408503 4.5893332628575942 0.0
3.5946444287728894 2.6234631175233272 0.0
2.4719282180942059 1.4552095521918629 0.0
4.1144281625417349 2.1501512459116703 0.0
3.7973216841646060 2.4852201098475026 0.0
2.9461517911795077 -0.7617363180882696 0.0
3.9368288220986400 1.5715219737652735 0.0
2.5587045955103656 2.1266327093166670 0.0
2.7045873401253857 1.0778903365688282 0.0
3.7304929043914288 2.6362982964860358 0.0
2.7820987581967023 1.4124410624679873 0.0
3.7616109497057511 -0.2512913072570495 0.0
2.1393451547268199 1.5591449479628960 0.0
2.5620819156559449 0.6726184934103205 0.0
2.3845922068533598 0.0884857924513694 0.0
3.9393114955649260 2.3383115340753076 0.0
2.7304792901367079 1.7097920459874152 0.0
2.8063327752330154 2.4125543788838519 0.0
2.9350653838362426 4.7380341075184909 0.0
2.5637999954829676 1.3665481656101361 0.0
2.5329453650062304 2.9062145842326297 0.0
2.2766231875383021 1.7405090417275213 0.0
3.2584589704937232 3.4968068014317857 0.0
1.9433709657442262 1.7860992538434490 0.0
3.7568811500977799 0.0481795451600451 0.0
3.4855805943522968 2.3189254443627560 0.0
3.6461086863216212 2.4780055965367991 0.0
3.9137655878344044 1.8117338273023789 0.0
3.8797976950193171 1.8626094027592530 0.0
3.7114876692300243 0.4753917886255455 0.0
3.0196726022730251 1.4489400993811266 0.0
1.6659607212917831 1.7022051154618805 0.0
2.4628953511278895 1.1664779059321961 0.0
2.9083034107556456 -1.0066901785090561 0.0
3.5603695964179241 2.4647247132230703 0.0
3.8325694794809335 1.9122413848017841 0.0
1.6984908176371700 0.1117482395654785 0.0
2.1035944633906700 1.0885584036561831 0.0
3.7118548805197533 3.1768396829712984 0.0
1.2743232462980123 0.4844883610270704 0.0
1.8314333585784188 3.2599149859165308 0.0
1.6205961903532919 0.9537735495294475 0.0
3.7696556631048646 1.3617955131556851 0.0
1.8404534363972571 2.2690171884164285 0.0
1.1708649403034816 0.8017719784643220 0.0
2.0950274652453631 2.3835954090295699 0.0
2.7767224490723299 3.3846813654217982 0.0
3.5342583617366214 1.0734440566917789 0.0
3.5054186846921742 0.6412574882036087 0.0
3.5588874554608476 2.2633475276321775 0.0
3.7335490542358198 -0.9962569956109434 0.0
3.4058344577827122 1.8171209927772141 0.0
3.9478268282244557 1.5916477581263502 0.0
1.7781201373362816 -0.3164293535454781 0.0
1.5181089638861107 1.5532750104434823 0.0
3.3995912483092834 2.6413566545747296 0.0
1.3331525364295713 1.7863280784905444 0.0
3.5448325433614056 2.6541968167245398 0.0
3.7143310313144244 0.9507235350333250 0.0
1.6190054602335833 0.8572263595310738 0.0
1.4004448818583790 1.3583019766207911 0.0
3.8280332750085848 -0.7053770982848119 0.0
1.8264526950955042 1.8545177783342963 0.0
1.6342882138899506 0.8824475951163873 0.0
1.5088353512352533 0.1767693257310132 0.0
3.6375615868255284 2.3697134112034099 0.0
3.6316328772458042 0.2574948190196574 0.0
3.3448937091359117 -0.1864531571622898 0.0
1.5934219590457299 3.1018946291859901 0.0
1.3155994648240512 1.1097984739363849 0.0
3.9892256581478840 2.0181678284047608 0.0
1.3864143284697081 0.8500525901994634 0.0
1.5169635133035795 2.7784686231141369 0.0
3.5981649658598469 2.0504095410073746 0.0
1.4938334761289995 -0.2519292151118315 0.0
3.5450411050109238 0.8005628409124838 0.0
3.1627592442735097 2.5636571627911970 0.0
2.6939033703589637 -1.3910717699750836 0.0
3.8378939896576796 2.4603599316100797 0.0
3.4509574074060905 1.8485909583917919 0.0
3.7565587895016046 0.2692893450842745 0.0
2.0000796610107101 3.0555923800266229 0.0
3.6121586382708406 3.6892350571132679 0.0
2.4435366336484434 4.0337478604511210 0.0
0.9103417573594257 0.8672898392832294 0.0
3.6186521563765912 2.5235339682557600 0.0
1.1965975813958116 0.6319003732915631 0.0
3.1753163986004354 0.3014337362572308 0.0
2.1053204526149152 2.1842062346905795 0.0
3.5546195022719180 2.7927574944127387 0.0
2.9756537738580118 0.9936633271139940 0.0
0.9156053502403582 0.6711211163576913 0.0
4.0122059883884456 1.9058242312444849 0.0
3.8044171101348927 -0.2363567790451200 0.0
3.6208281822646367 1.5296099335067468 0.0
2.3356486982485674 1.5357633286863368 0.0
0.7641785588468315 3.4574472554759508 0.0
1.0392563574061067 0.9120597535744203 0.0
4.0085166853932535 1.7533130750303247 0.0
1.3237941352444655 1.0674120839349910 0.0
1.2797824885093299 0.4968021414826062 0.0
3.2642670563942504 1.9328223845326113 0.0
1.4739094729621256 -0.2888556936508727 0.0
4.0343559944290295 2.2891863432655670 0.0
3.5543315710475420 1.4800711769760297 0.0
3.1415380352843139 2.2416800675362052 0.0
2.9152118134102358 3.0367888281455175 0.0
3.8890667036333797 3.2541908746109351 0.0
1.1276621634751065 0.3381918048172082 0.0
1.7254636710227491 2.4105902901418563 0.0
3.7944487854411069 2.4667196694574791 0.0
3.6718622843144253 -1.2997046379911841 0.0
1.2131474577129140 3.3076064103750960 0.0
1.2883425027734476 0.5158863343855135 0.0
1.0716743944323723 0.4274391763866112 0.0
1.0952215336329356 0.0614539110064409 0.0
3.8981476383957423 2.3596909706463007 0.0
3.7083248724873079 2.7831435673536342 0.0
2.9114781101990470 1.7449126472693581 0.0
1.0418494047697333 1.5052581769058837 0.0
3.7305766943332177 2.5436099172783786 0.0
3.9712011845885051 2.2073425519606595 0.0
4.0927595248119335 1.9858849444761184 0.0
3.8575782659554374 1.6600944088155767 0.0
1.6337212552440827 2.3199680935317342 0.0
3.7671067891433792 -0.0141303444582789 0.0
1.3483458468453544 0.6577551967878973 0.0
3.8490243216372000 1.4089842423227192 0.0
3.8644230390203544 1.2791871988500703 0.0
2.6176426705804272 1.8733343704035239 0.0
3.2065395937312706 1.5191719695048609 0.0
3.1138923011518846 2.1709454672356419 0.0
3.0901095411739483 1.9786820737837514 0.0
3.4180964198108112 1.6734376353151654 0.0
3.9264642669089782 2.1505822799877721 0.0
1.2473109111404521 0.1821089245620730 0.0
2.9179182394251244 2.0972607714814360 0.0
2.7127250997565109 0.9059192804343126 0.0
2.8565507822007006 2.0720241609751624 0.0
2.7562105132977130 0.0144669619095397 0.0
3.8852437477575350 -0.4961161741663553 0.0
0.9458663924763674 0.9699478372461473 0.0
2.3150541685110815 -1.0744021679527429 0.0
3.7937451103624746 2.4782659298740031 0.0
2.9021353497843134 1.4742468641569322 0.0
3.1069102370418165 1.6993877546248368 0.0
3.4857950526115342 3.9837018274786820 0.0
0.5854477688102742 1.6453276711977940 0.0
3.6381018393758224 2.6207536756617946 0.0
1.5267328180130222 1.8347056391176928 0.0
3.0221337975137352 -0.6176799305675318 0.0
3.7764894911222333 0.7856764691759611 0.0
3.4877884344559047 2.4014014240452282 0.0
0.7096127318393572 0.5668413791011748 0.0
1.1876633926845301 2.2361199600081116 0.0
3.1164946877102557 2.7832758236004675 0.0
1.7170492435436513 2.9234087781080809 0.0
1.0251141364888758 1.8797567770903030 0.0
0.8891104282604853 1.5838845849131027 0.0
1.6640367110837411 3.0814242105185707 0.0
1.5231329922335461 1.1975697596688415 0.0
2.1899781157916491 -1.4153178787276259 0.0
2.2367348285365671 1.7090443319961814 0.0
0.7580349560234425 0.3274040005378082 0.0
0.8218437186101351 0.6255852429151519 0.0
3.8838881390400704 3.4601881819076223 0.0
1.3440370621444244 -0.0682285598510108 0.0
3.1615926947795101 0.7984728096688035 0.0
3.6958583054649612 0.0083302790780006 0.0
3.7436871775875238 2.3349243988777277 0.0
1.1250733693312716 3.3292140680164657 0.0
2.8747102518607206 0.7206722600639364 0.0
0.6706804659786333 0.4094253939917267 0.0
3.5623875387836668 -0.3093237392545655 0.0
3.5807151741462366 2.6477599562766367 0.0
0.8916389364735241 -0.0070169640947590 0.0
2.8281152667514013 -0.1852003956995877 0.0
2.8666867595970826 1.5545684536593831 0.0
3.6907265282214374 -1.6736643527917154 0.0
0.9572388064088432 0.1189992357962758 0.0
2.6557008106453655 1.6372482309452276 0.0
2.8962876060609588 2.3437188532611457 0.0
2.3254996384959061 1.9214959919511263 0.0
3.7195391660339525 2.4748652845577404 0.0
3.7663356605403520 1.8386364697137281 0.0
2.7242608857768924 1.1185094529890194 0.0
3.6872049758211589 3.7895361485298831 0.0
3.9949314074151570 1.9062648596826970 0.0
1.0254127183350203 0.6354044264828299 0.0
3.1433605583562518 3.2612164572354714 0.0
2.8599732670838041 1.6680392646616029 0.0
4.0295443783047240 2.0035856189564334 0.0
4.0024424966205494 1.7989190101743104 0.0
3.0965061213649094 2.2478452746357385 0.0
3.6122901290923610 2.4754925837938879 0.0
1.2823345740030794 -0.7645951722818461 0.0
3.5265503275911509 0.6563055434312891 0.0
3.7217150589780412 0.2353532913489192 0.0
1.6699942943012052 4.0683783332497168 0.0
2.3639681778145429 1.9597450384583652 0.0
0.7620714967915490 0.6099077204261458 0.0
3.7560344928978240 2.4918424909279198 0.0
4.0549359302604575 1.9073725428242678 0.0
3.8559489156580020 1.0882706976931844 0.0
3.7237948394844893 2.1395867227336658 0.0
3.7568232534677102 2.8733423113955920 0.0
3.6141349765871964 0.1790728078998815 0.0
3.9046811266743680 3.4794515520681917 0.0
3.6694944201408934 2.4402991553463882 0.0
3.5411629228030437 1.7226986561337165 0.0
3.6313736312840592 1.7392446400472334 0.0
2.9084688715001867 1.8808521516972085 0.0
3.5805790631235941 1.3439062277526201 0.0
3.2727080475916988 1.6728241915272635 0.0
3.1356018478128984 2.3742043606300762 0.0
3.3213462542028567 2.4089669142185781 0.0
3.1806971783037721 -0.4039657417464051 0.0
3.6037488330935012 3.8595686952386083 0.0
2.6505036930901462 2.1722575860873850 0.0
3.0099239599537966 1.4097889760143780 0.0
3.6954398401770074 0.5521581138488292 0.0
2.7374059181921893 0.4275931839501479 0.0
3.4112028798525298 1.1088478101244637 0.0
2.8084396516664403 2.6575140108730100 0.0
3.4912965750928886 4.5887629775728085 0.0
3.6247254357241512 2.6188214895476167 0.0
2.4052655681780188 1.4162910062711278 0.0
4.1154529007367264 2.1546047111265496 0.0
3.7893513505276162 2.4708808074191655 0.0
2.9462381982997532 -0.7615047520968011 0.0
3.9299626020038088 1.5995575589001942 0.0
2.5299487025282983 2.0867362449868176 0.0
2.7737618371829855 1.1069312539324707 0.0
3.7471239522109006 2.6110283157422689 0.0
2.8555259199631551 1.4515377000038387 0.0
3.7544459757384532 -0.2380374661818030 0.0
2.0862483140172823 1.5185209759950336 0.0
2.6198189220975294 0.6907374037899415 0.0
2.3979420920938344 0.0987293433755436 0.0
3.9686060525791320 2.3566996851362152 0.0
2.6726896160716085 1.7063750536365843 0.0
2.8551610211280876 2.4144731295521926 0.0
2.9350255490514088 4.7380181596365958 0.0
2.4969539739512814 1.3317670669893671 0.0
2.5314241037336651 2.8972543380999509 0.0
2.3401812265125752 1.7854221511593151 0.0
3.2685060522470808 3.4968593275901241 0.0
2.0020263334646096 1.7959958093753097 0.0
3.7365126232663308 0.0664801876256394 0.0
3.4404732758201542 2.2749879193941944 0.0
3.6907349110452583 2.4888711721940888 0.0
3.9616275032401127 1.8361305304239433 0.0
3.8259624051793235 1.8684347000379604 0.0
3.7057837474935611 0.5015202153793163 0.0
2.9762626729779709 1.4576321327750192 0.0
1.6586198146653559 1.6898605221655487 0.0
2.3969927125243209 1.1395463898283267 0.0
2.9081978098609551 -1.0067592325748256 0.0
3.6071945132042904 2.4688360577543942 0.0
3.7725560097313897 1.8919189889665797 0.0
1.7254464904412281 0.1243655657565147 0.0
2.1649258306793908 1.1182572074390911 0.0
3.7215738633997875 3.1550671816883984 0.0
1.3191673439975600 0.5009525809162150 0.0
1.8314110728989874 3.2599402460162681 0.0
1.5723061665501543 0.9227776591938300 0.0
3.7312549354594253 1.3892189106452082 0.0
1.8402487574737396 2.2672261743868751 0.0
1.1409368017419472 0.7766352033730207 0.0
2.1132746380685306 2.3830530204098528 0.0
2.7794461023934085 3.3839527830679650 0.0
3.5758917882395527 1.1024866047218962 0.0
3.4730193672778307 0.6573645052996714 0.0
3.5118330015154045 2.2246058996561544 0.0
3.7337076489624041 -0.9951320220463045 0.0
3.3372764668364314 1.7829730286362808 0.0
3.9785609373125186 1.6170129745997415 0.0
1.7788439226360582 -0.3151091777606903 0.0
1.5650305928038091 1.5740142110780992 0.0
3.3838799319570629 2.6005892459423570 0.0
1.3735496034970414 1.7906308039720069 0.0
3.5866713733080058 2.6405145606286267 0.0
3.6781235811939852 0.9805061206132076 0.0
1.5677164596979742 0.8315286157328088 0.0
1.3822693227207010 1.3336222729663549 0.0
3.8267604132509212 -0.6999730799653680 0.0
1.8256563468216032 1.8504902990598409 0.0
1.5928024471603570 0.8744888888158034 0.0
1.5464311534869641 0.1876877779900769 0.0
3.5988495369171378 2.3347512787376257 0.0
3.6098762267430682 0.2704592040039165 0.0
3.3486509276932503 -0.1682234194449070 0.0
1.5934126479967328 3.1018965736401580 0.0
1.2726947502504349 1.0738873957877388 0.0
3.9464504893321104 2.0045460329947757 0.0
1.4371886211447007 0.8802674389242867 0.0
1.5216720202720007 2.7795480612677861 0.0
3.6637962732292295 2.0874155332627189 0.0
1.4985451565841112 -0.2478158936914345 0.0
3.5685273970035971 0.8285480987069918 0.0
3.1510891147776281 2.5239643292215517 0.0
2.6938782381955932 -1.3912086117636728 0.0
3.8642626605393322 2.4728798421459572 0.0
3.3811855853661958 1.8456026583684566 0.0
3.7401335434018987 0.2911886688125669 0.0
2.0001720961994831 3.0555769606725320 0.0
3.6176302445558206 3.6814995518377236 0.0
2.4435644846108300 4.0336763662671400 0.0
0.9452266182025956 0.8964454514245849 0.0
3.6030036099650227 2.4870297418495508 0.0
1.1536323381434801 0.6096669078073154 0.0
3.1970429650850654 0.3229484134411362 0.0
2.1380261681696178 2.1866303508621203 0.0
3.5912110209632990 2.7806269390645730 0.0
2.9444139103735094 1.0052475563702050 0.0
0.8858487661982537 0.6476401436512489 0.0
4.0541905461505126 1.9312715905959714 0.0
3.7930897569811708 -0.2268361612622128 0.0
3.6823104812716974 1.5594821611894707 0.0
2.3027283717368663 1.5371661492527362 0.0
0.7641785588468317 3.4574472554759503 0.0
1.0157998315757022 0.8874881564289452 0.0
3.9947404823475225 1.7700215412204963 0.0
1.3137302483713831 1.0528137156478290 0.0
1.3297922391822035 0.5188727415696306 0.0
3.1958239240551718 1.8926775302957570 0.0
1.4736672367776307 -0.2888277675206253 0.0
4.0300508445134007 2.2898496830734838 0.0
3.4935286400330483 1.4984584247278054 0.0
3.2077757977705961 2.2769290788020902 0.0
2.9072933795284479 3.0133784845160774 0.0
3.9116458961766289 3.2471976172167398 0.0
1.1679761186978075 0.3504222764978648 0.0
1.7255935869046191 2.4101521280856937 0.0
3.7999771121336097 2.4556115355357484 0.0
3.6721800917035399 -1.2997764807109997 0.0
1.2131484411657361 3.3076064638606639 0.0
1.3346904034413842 0.5351879505416629 0.0
1.0294278493450579 0.4087819275528493 0.0
1.1259645015671234 0.0676943694216841 0.0
3.8884073180172494 2.3458350807113768 0.0
3.7258979059757906 2.7524230863527452 0.0
2.8460442157951737 1.7016530818456275 0.0
1.0376181796592781 1.4961029495686700 0.0
3.7542604236520631 2.5252526773719728 0.0
4.0087279736321904 2.2311061739956539 0.0
4.1005176013361249 1.9947514011486764 0.0
3.8153003480896706 1.6793044287295003 0.0
1.6337204827842182 2.3200522722539172 0.0
3.7566687172275164 0.0072615729416204 0.0
1.3077249149404999 0.6421866493762181 0.0
3.8761203787593121 1.4378388515906895 0.0
3.8658495915688209 1.3132609007407421 0.0
2.5807896537917880 1.8322013794201195 0.0
3.1347703148024122 1.4983386550160149 0.0
3.0659492147244620 2.1246870743086008 0.0
3.1634562117134624 2.0229242744805793 0.0
3.4886179790375720 1.7050003293562643 0.0
3.8783164304262070 2.1327383673436882 0.0
1.2653000307790176 0.1885249767854603 0.0
2.9845760239138981 2.1054525005607641 0.0
2.7776172358126381 0.9329238756537508 0.0
2.7996729395922806 2.0284050081368044 0.0
2.7753851851857547 0.0320596515436481 0.0
3.8801913807414730 -0.4904683411104349 0.0
0.9434999075895548 0.9650831110560459 0.0
2.3150237179726969 -1.0744183581172115 0.0
3.8250970705104099 2.4886722610873808 0.0