# vtk DataFile Version 3.0
LucasCarvalhoTCC Results
ASCII

DATASET POLYDATA
FIELD FieldData 1
TIME 1 1 double
4.1000000000000005

POINTS 531 float
0.02430399999999999 0.16425 0.0
0.5913384 0.481878 0.0
1.30475 0.591832 0.0
0.774126 0.951272 0.0
0.04779564148251592 0.1966194329439859 0.0
0.0726092153537953 0.2279866320496896 0.0
0.09876577335895967 0.2582426022760065 0.0
0.1262817198684718 0.2872673048853742 0.0
0.1551671626852806 0.3149288071400502 0.0
0.1854238368919928 0.3410826624766006 0.0
0.2170424591499632 0.3655716640299072 0.0
0.2499995164635996 0.3882263409476824 0.0
0.2842534387828506 0.4088665906889567 0.0
0.3197403359862048 0.4273050841371062 0.0
0.3563695945475563 0.4433531534921038 0.0
0.3940201673622058 0.4568300511916809 0.0
0.4325386107291805 0.4675762214989666 0.0
0.4717406913237268 0.4754709112408955 0.0
0.5114182513144845 0.480453442081874 0.0
0.5513531678859215 0.4825464217651069 0.0
0.6182637923774223 0.5096055604109244 0.0
0.647389101376845 0.5350126187545199 0.0
0.6784752958296183 0.5579802184492302 0.0
0.7112421079139344 0.5784810076698811 0.0
0.7454110434104482 0.5965507527581431 0.0
0.7807301979183381 0.6122562812860965 0.0
0.8169827939052532 0.6256694297140926 0.0
0.853985522124928 0.6368498290413532 0.0
0.8915818964261243 0.6458353363890481 0.0
0.9296339776508085 0.6526379336565091 0.0
0.9680139759519513 0.6572432424840469 0.0
1.006596418266983 0.659612648128084 0.0
1.045251165872634 0.6596877658251245 0.0
1.083837680945672 0.657397570658483 0.0
1.122201320191055 0.6526688455666412 0.0
1.160173053543044 0.6454405726452737 0.0
1.197574286953346 0.6356824063786186 0.0
1.23422961949795 0.6234159704281613 0.0
1.26998758503999 0.6087366500005643 0.0
1.285086682927543 0.6256533177085738 0.0
1.263669745906668 0.6583917156018083 0.0
1.240480125919214 0.6898988493917133 0.0
1.215532715641304 0.7200329197235763 0.0
1.188869833862339 0.7486599839005789 0.0
1.160556835593143 0.7756559317113654 0.0
1.130680194163798 0.8009104211039757 0.0
1.099347083827048 0.8243335727704395 0.0
1.066684425336412 0.8458643604021228 0.0
1.03283497048792 0.8654772531176074 0.0
0.9979492572630678 0.8831824104874066 0.0
0.9621749986495024 0.8990166556695112 0.0
0.9256475378616493 0.9130272060048579 0.0
0.8884846540507749 0.9252538945090274 0.0
0.8507866567183312 0.935715378288671 0.0
0.8126405010322847 0.9444016349017643 0.0
0.7365055179612304 0.9396161853607135 0.0
0.699310855231089 0.9266666891603924 0.0
0.6626179171945521 0.9123577070090924 0.0
0.6264901449910028 0.8966765244755546 0.0
0.5909789825447118 0.8796450886595113 0.0
0.556124897941028 0.8613059841617771 0.0
0.5219601957009091 0.8417124664434518 0.0
0.4885110616878257 0.8209207172498462 0.0
0.4558007060429968 0.7989848675704875 0.0
0.4238520247653796 0.775953675763176 0.0
0.3926900138417566 0.7518687036338616 0.0
0.3623437622133722 0.7267636709390595 0.0
0.3328479550295906 0.7006647540504483 0.0
0.3042438201183181 0.6735915983461908 0.0
0.2765795358619001 0.6455588748284606 0.0
0.2499101143933102 0.6165781952942546 0.0
0.2242967982692083 0.5866601984136335 0.0
0.1998060807431611 0.5558166834807132 0.0
0.1765083808984156 0.5240625786010467 0.0
0.154476512720734 0.491417660368959 0.0
0.133784033184808 0.457907916333494 0.0
0.114503564227142 0.4235664945146766 0.0
0.09670517293008124 0.3884342245925089 0.0
0.0804548910754031 0.3525597611689231 0.0
0.06581337946329963 0.3159993090744527 0.0
0.05283482490365372 0.2788161107032479 0.0
0.0415660226296666 0.2410796291505872 0.0
0.03204569406625649 0.2028646095712164 0.0
0.5272009874003867 0.6419624505772817 0.0
0.7421848286576707 0.7716726266421574 0.0
0.8789503364783713 0.7829234141383637 0.0
0.6149390992905563 0.7449438030688011 0.0
0.4064556042659638 0.5942834991165423 0.0
0.9875021850865396 0.7666507358101158 0.0
0.3188065960661005 0.539594034984892 0.0
0.61365100263957 0.6399487878797632 0.0
0.8049090660915541 0.8464379870891131 0.0
0.7099820328572021 0.6828840522539854 0.0
0.5239467234991928 0.7406922291088611 0.0
0.8154056325591208 0.7211774015928547 0.0
0.6676178829014909 0.8152713180209475 0.0
0.4416080359619968 0.674360953773491 0.0
0.489443615375965 0.5654986742123573 0.0
1.076665773779852 0.7387182918829318 0.0
0.250390543112057 0.4877450112830265 0.0
0.5736819937919005 0.5790366884881447 0.0
0.7263706755366466 0.8615301097563091 0.0
0.940143307772686 0.8233944909985552 0.0
0.927065543677544 0.7236459161626674 0.0
0.8744389806957806 0.8609114380468947 0.0
0.336888362650554 0.6081958070931937 0.0
0.2030757334857187 0.4383942902513459 0.0
0.3861483329720647 0.5255533415902591 0.0
0.5621001921466506 0.7923778419149285 0.0
0.6822897332295245 0.7428043323059399 0.0
0.5764061681675353 0.6881266532454204 0.0
1.129195449682892 0.7163224153578123 0.0
0.8157794419559141 0.7831214907157077 0.0
0.3806644703311284 0.6554275822782399 0.0
0.7695737871052837 0.669593045341503 0.0
0.4699375460410929 0.6217118815516158 0.0
0.6830867370872363 0.630350317562806 0.0
1.040416897214502 0.7929392348941093 0.0
0.4604428393605979 0.7321209818568342 0.0
0.8729552856459739 0.7015083313474691 0.0
1.017010765275644 0.7166925631396708 0.0
0.6458785458483771 0.6946878992565794 0.0
0.7733575582969163 0.8941098392103913 0.0
0.4457537579383052 0.5273353624588528 0.0
0.163830623786951 0.3903175742448083 0.0
0.6095823984734953 0.8256600013628639 0.0
0.2618074352614998 0.5435604438425528 0.0
0.6287880420949764 0.5875838132975476 0.0
0.3100402147222924 0.4835410260423071 0.0
0.5422177893302824 0.5343158927797464 0.0
0.9964262112680041 0.8213447667248638 0.0
0.4971609598823845 0.6906859160718212 0.0
0.5740517260168769 0.633982031239429 0.0
0.7423299505107201 0.7218768583704394 0.0
0.767147744476665 0.819658485932403 0.0
0.9427329070375209 0.7774595780066723 0.0
0.8375285793481674 0.8869398470561132 0.0
0.2879426409425497 0.5872676364411625 0.0
0.6797562629663748 0.8647676397847667 0.0
1.171674168522591 0.6949964056806914 0.0
0.5261010885606964 0.6055079299963303 0.0
0.7081534744446967 0.8078672678314597 0.0
0.9681672688626206 0.705385299758921 0.0
0.7364069054947873 0.6432919177737106 0.0
0.363826821075015 0.5678764295233764 0.0
0.826170216989844 0.6605791783255148 0.0
0.1284439337099834 0.3602715082199688 0.0
0.518140828090112 0.783905985497134 0.0
0.8452908336054504 0.8167586152211004 0.0
0.2015204468558833 0.492088055688788 0.0
0.4005883523205732 0.7121294304856254 0.0
0.3551392316798573 0.4864133323669936 0.0
0.2501727034998737 0.4443035857235296 0.0
0.857938396055507 0.7390317828783199 0.0
0.9245301815433076 0.8668102132501951 0.0
0.5702050292970205 0.7323438487067678 0.0
1.111607633075016 0.759318252473435 0.0
0.6317193755596126 0.7853891653733797 0.0
0.7921381265818805 0.7497379312370454 0.0
1.088942426366261 0.7015435214091311 0.0
0.5818207607488639 0.5352340257544296 0.0
0.4203532416309484 0.6369649631143086 0.0
0.4854818714173937 0.5131439318707094 0.0
0.4475429831528036 0.5690430472086269 0.0
0.8968753306595262 0.8225547516037004 0.0
0.6339557898063448 0.8543470494763272 0.0
0.3416564411796998 0.6516449771136894 0.0
1.082970576264455 0.7856036465430698 0.0
0.2255204648032354 0.5229464838393291 0.0
0.7335043541589261 0.9012744999286941 0.0
0.9097052989734319 0.6921177492721042 0.0
0.5363428275528405 0.6992389299864537 0.0
0.9657777897300287 0.8588269742066746 0.0
1.025947476617909 0.7556651119714124 0.0
0.1090829970454354 0.3226173037985549 0.0
0.4836644525169279 0.7663103281018557 0.0
0.6910856326166581 0.777867529208468 0.0
0.6694391877434097 0.5946719355048008 0.0
0.2954883530575775 0.4501042133334518 0.0
0.6746032498128595 0.6643957640016517 0.0
1.054636636429828 0.6974583960183274 0.0
0.8939255235163368 0.7470597914537064 0.0
0.3749741568555516 0.6190655430398917 0.0
1.204101441114554 0.6801433534918062 0.0
0.6130053345415899 0.6785345531932346 0.0
0.7679719108452487 0.8562682874000032 0.0
0.9710820219997449 0.8008372590855476 0.0
0.1608022352294362 0.4242591696906621 0.0
0.2865399820604418 0.5141369963640697 0.0
0.1962258775846918 0.4008383427744516 0.0
0.6210920174972845 0.5516143721732873 0.0
0.4843009180093644 0.6583977883024127 0.0
0.5695029195102991 0.8267073580550881 0.0
0.9562891163300477 0.7436031251145003 0.0
0.4174190173896447 0.5044019081507806 0.0
0.410860431802698 0.5535781448116232 0.0
0.8709320861791604 0.9002602580953145 0.0
0.427354757192076 0.7399041791280969 0.0
0.7107884943357746 0.7172753954970394 0.0
1.030382288537246 0.8267335242583146 0.0
0.7737440530215844 0.7115751739064536 0.0
0.8042035044852396 0.9123190309183211 0.0
0.0480920891272324 0.2181807374272496 0.0
0.3695079235280397 0.6886893012630373 0.0
0.773516204411121 0.7830673827025234 0.0
0.302776671534508 0.6210168062901616 0.0
0.7150573728414059 0.6149413270404035 0.0
0.5863276441271683 0.769748656022605 0.0
1.143752049005473 0.6780480059671409 0.0
0.6477132714923303 0.7318578097016951 0.0
0.8380052680878572 0.8531154611905379 0.0
0.5966224054445893 0.6051703156405629 0.0
0.3207240819522855 0.5772784374275386 0.0
0.3520131451607586 0.5263918604440553 0.0
0.8573528491808811 0.6709738722470224 0.0
0.1797236573643203 0.460867988842514 0.0
0.5540828191547277 0.6661566975721369 0.0
1.158039843450239 0.7357536542887966 0.0
0.08638006908591334 0.286237566592474 0.0
0.790861820497242 0.6466611559014377 0.0
0.5362079962218838 0.8121454698907893 0.0
0.9405172130232713 0.6862060282668497 0.0
0.6039359324506977 0.711463595189489 0.0
0.4440093493753478 0.6096873538428137 0.0
0.5500746279087338 0.7620941994763282 0.0
0.2578504496023611 0.5739900063885278 0.0
0.502526452350101 0.6209820553182169 0.0
0.6799833858912959 0.7033681517905728 0.0
0.7183487148906835 0.7518430858176317 0.0
0.8006701240044786 0.8118713608014352 0.0
0.1304684854221093 0.3934039266496895 0.0
1.00789495394612 0.7937868725857601 0.0
0.696960396255943 0.893370944718147 0.0
0.8258315165019564 0.7538365084989149 0.0
0.8462950259502577 0.775614153529746 0.0
0.4082018839227037 0.6749460331934272 0.0
0.7025889307788081 0.8378536687159448 0.0
0.4666676520109517 0.6984557076050861 0.0
[...]
POINT_DATA 531

VECTORS Velocity float
0.0000000000000000 1.0000000000000000 0.0
0.0000000000000000 1.0000000000000000 0.0
2.6381837934914287 -0.9593345525374244 0.0
1.7800127031351229 1.0219463246522449 0.0
0.0000000000000000 1.0000000000000000 0.0
0.0000000000000000 1.0000000000000000 0.0
0.0000000000000000 1.0000000000000000 0.0
0.0000000000000000 1.0000000000000000 0.0
0.0000000000000000 1.0000000000000000 0.0
0.0000000000000000 1.0000000000000000 0.0
0.0000000000000000 1.0000000000000000 0.0
0.0000000000000000 1.0000000000000000 0.0
0.0000000000000000 1.0000000000000000 0.0
0.0000000000000000 1.0000000000000000 0.0
0.0000000000000000 1.0000000000000000 0.0
0.0000000000000000 1.0000000000000000 0.0
0.0000000000000000 1.0000000000000000 0.0
0.0000000000000000 1.0000000000000000 0.0
0.0000000000000000 1.0000000000000000 0.0
0.0000000000000000 1.0000000000000000 0.0
0.0000000000000000 0.0000000000000000 0.0
0.0000000000000000 0.0000000000000000 0.0
0.0000000000000000 0.0000000000000000 0.0
0.0000000000000000 0.0000000000000000 0.0
0.0000000000000000 0.0000000000000000 0.0
0.0000000000000000 0.0000000000000000 0.0
0.0000000000000000 0.0000000000000000 0.0
0.0000000000000000 0.0000000000000000 0.0
0.0000000000000000 0.0000000000000000 0.0
0.0000000000000000 0.0000000000000000 0.0
0.0000000000000000 0.0000000000000000 0.0
0.0000000000000000 0.0000000000000000 0.0
0.0000000000000000 0.0000000000000000 0.0
0.0000000000000000 0.0000000000000000 0.0
0.0000000000000000 0.0000000000000000 0.0
0.0000000000000000 0.0000000000000000 0.0
0.0000000000000000 0.0000000000000000 0.0
0.0000000000000000 0.0000000000000000 0.0
0.0000000000000000 0.0000000000000000 0.0
2.6782998336609043 -1.7943039503504603 0.0
3.6708221979362063 -2.3037428737617334 0.0
3.7614147724035214 -2.2275685911711158 0.0
3.7617471041441486 -1.9743740438951303 0.0
3.8480626906289790 -1.7566696327907529 0.0
3.9417678692044067 -1.4498596730255082 0.0
3.9925554534226695 -1.2867665737401119 0.0
4.1002316614016374 -1.0545015054329201 0.0
4.0585550040114251 -0.7482074917823932 0.0
4.0299109828286088 -0.4810419342040749 0.0
3.8925137643493817 -0.1907073511006609 0.0
3.6767147926920427 0.0987890810031081 0.0
3.4990111523153331 0.3248261100426052 0.0
3.1597949679408117 0.5611241836270102 0.0
2.5672932512192914 1.0885287219379545 0.0
1.7571171751425891 0.9477296854356405 0.0
0.0000000000000000 0.0000000000000000 0.0
0.0000000000000000 0.0000000000000000 0.0
0.0000000000000000 0.0000000000000000 0.0
0.0000000000000000 0.0000000000000000 0.0
0.0000000000000000 0.0000000000000000 0.0
0.0000000000000000 0.0000000000000000 0.0
0.0000000000000000 0.0000000000000000 0.0
0.0000000000000000 0.0000000000000000 0.0
0.0000000000000000 0.0000000000000000 0.0
0.0000000000000000 0.0000000000000000 0.0
0.0000000000000000 0.0000000000000000 0.0
0.0000000000000000 0.0000000000000000 0.0
0.0000000000000000 0.0000000000000000 0.0
0.0000000000000000 0.0000000000000000 0.0
0.0000000000000000 0.0000000000000000 0.0
0.0000000000000000 0.0000000000000000 0.0
0.0000000000000000 0.0000000000000000 0.0
0.0000000000000000 0.0000000000000000 0.0
0.0000000000000000 0.0000000000000000 0.0
0.0000000000000000 0.0000000000000000 0.0
0.0000000000000000 0.0000000000000000 0.0
0.0000000000000000 0.0000000000000000 0.0
0.0000000000000000 0.0000000000000000 0.0
0.0000000000000000 0.0000000000000000 0.0
0.0000000000000000 0.0000000000000000 0.0
0.0000000000000000 0.0000000000000000 0.0
0.0000000000000000 0.0000000000000000 0.0
0.0000000000000000 0.0000000000000000 0.0
3.9549413101252751 2.5970406799170735 0.0
4.2692378321675033 2.0925384560922007 0.0
3.9201164533995780 1.1526154261318762 0.0
3.8364551515744001 2.2076251495665904 0.0
3.8115383402911736 2.9213856756753342 0.0
3.4863467855877990 0.1048086312100316 0.0
3.9066060697036749 3.4809882292178203 0.0
3.7398361503500372 2.4396284367146461 0.0
3.7208853227737411 1.8956440028678554 0.0
3.5663334077545827 1.7182295529984699 0.0
2.8652454328640218 1.8295368630234898 0.0
3.3954790840623619 1.3550598015279602 0.0
3.2499986662207507 1.6740248327187912 0.0
3.1644953698731157 2.3613673950842835 0.0
3.2639186044431652 2.4970937142307799 0.0
3.0531976969591477 -0.4756266571050315 0.0
3.6094718687630984 3.8495681811183871 0.0
2.5066703493761264 2.1183103309912021 0.0
2.9391428889042066 1.4019630307371298 0.0
3.8849728191940307 0.5458304380044687 0.0
2.4194799089394783 0.3767183464344014 0.0
3.6240216045601072 1.2015549111335264 0.0
2.8014462615384987 2.6392093265486674 0.0
3.4917207811926581 4.5880052008233259 0.0
3.6256921946316543 2.6428629606164504 0.0
2.2995499825216346 1.3529534567851871 0.0
4.3107718163721875 2.3127309192139833 0.0
3.9857914079971333 2.5791741223616347 0.0
2.8663762555129688 -0.7872937491650294 0.0
4.1023686690629413 1.7509740832652312 0.0
2.5224375246578230 2.0464593887580316 0.0
2.5633781125939068 1.0609895337083697 0.0
3.9050053208346975 2.7234573475357400 0.0
2.7034737216771085 1.3467182565435867 0.0
3.8183588199512015 -0.3764924985098717 0.0
1.9986933627504355 1.4589239250394226 0.0
2.3076535989366165 0.6240998624272155 0.0
2.1517338886260853 0.0563419010281179 0.0
4.1331963942696106 2.4553721514685054 0.0
2.6215614471252326 1.7011778730306188 0.0
2.7980229197742879 2.4503946993038479 0.0
2.9347496633966852 4.7381289721361002 0.0
2.4031757518024128 1.2823554678305604 0.0
2.5249408290693256 2.8814373915690941 0.0
2.1735718736572620 1.6509851719070812 0.0
3.2843316731412240 3.5022820554940144 0.0
1.8259243481975151 1.7697069270451964 0.0
3.9378582240576501 -0.0444875789817507 0.0
3.5028389035111074 2.2886191112123702 0.0
3.8375862644889240 2.5628431230220010 0.0
3.9854361451121472 1.9519080666740032 0.0
4.0283497500040024 2.0460525362687729 0.0
3.6651544166534049 0.4677134097967783 0.0
3.0716477768122155 1.5623702135665352 0.0
1.6464891066072205 1.6796392844559183 0.0
2.2883877194516757 1.0839514320573393 0.0
2.8703187903499479 -1.0421211773419914 0.0
3.6984867709387408 2.5498132461042808 0.0
3.8887817088474330 1.9670178653243497 0.0
1.4825767774071243 0.0843384278893721 0.0
2.0156147780423566 1.0817117670328855 0.0
3.7322223167609798 3.1722491278139895 0.0
1.1416476337798482 0.4484528465551929 0.0
1.8313800245021317 3.2599846270785275 0.0
1.5040399594184957 0.8746876301604138 0.0
3.9540120077070453 1.5265874659019480 0.0
1.8405257449974148 2.2640335725601286 0.0
1.1042133630855639 0.7375752354229540 0.0
2.1195569443065163 2.3899698674750480 0.0
2.7844732412278415 3.3822252772767447 0.0
3.3922148995617083 1.0852697243081326 0.0
3.7322907988455913 0.6616053813295469 0.0
3.5863435620080355 2.2467637134532001 0.0
3.7613615534484106 -1.1022204287189965 0.0
3.3246623344063759 1.7866650577254832 0.0
4.0285812591361072 1.7431166192926995 0.0
1.6630208402137523 -0.3281505560707529 0.0
1.4182935133260568 1.5128353896433366 0.0
3.4431190620974168 2.6027386143117366 0.0
1.2867651263064204 1.7991941136268721 0.0
3.5939382007001077 2.7376785019044743 0.0
3.8876754472231303 1.0589331401783768 0.0
1.4968866890612724 0.7924080669930892 0.0
1.3736254322217867 1.3133553931696755 0.0
3.9044128211306148 -0.8779922557571568 0.0
1.8247536871834598 1.8429141914547780 0.0
1.5299825487827785 0.8480768408463421 0.0
1.3111814589058763 0.1605761349384488 0.0
3.7065472549912726 2.3738858863015659 0.0
3.9113986742684008 0.1910502827810325 0.0
3.1936721761930515 -0.2716421821866695 0.0
1.5934203748917728 3.1018875871219236 0.0
1.2122760479470327 1.0298685106291148 0.0
4.1045005021540124 2.1234070454529013 0.0
1.3148170894178717 0.7973629159685163 0.0
1.5291218694323960 2.7802567727631864 0.0
3.6472830322958343 2.0799113214478173 0.0
1.3587196792663963 -0.2615011031039081 0.0
3.3944200688171731 0.7980510084502387 0.0
3.1599173916631043 2.5065187466292023 0.0
2.6865282688016325 -1.4063453615369295 0.0
4.0479191098434519 2.5926467961401825 0.0
3.4356169049461167 1.9273289554909845 0.0
3.8145226456877599 0.2423689080075703 0.0
2.0001055614604417 3.0559610635675294 0.0
3.6256206921347687 3.6750692877615303 0.0
2.4431175766819733 4.0337822236437963 0.0
0.8495585663346875 0.8076831470082512 0.0
3.7444399084541384 2.5554650966760559 0.0
1.0908576924408004 0.5765210160798918 0.0
2.9370471425650955 0.2679962300356906 0.0
2.1163684344792850 2.2076507838888140 0.0
3.5893000839964131 2.8376952378038682 0.0
3.0601243489574941 1.0422677852724367 0.0
0.8405965634961662 0.6066904285432667 0.0
4.1333500833089341 2.0172714085003034 0.0
4.0472769657240431 -0.3935322383009356 0.0
3.5720856061532760 1.6043703780248773 0.0
2.2800477783538997 1.5718996290518750 0.0
0.7641786058873555 3.4574472050142333 0.0
0.9940260269310007 0.8569155314057795 0.0
4.2178590606875739 1.9595467850814261 0.0
1.3066725649808753 1.0437580534037689 0.0
1.2200281094222118 0.4734893673102721 0.0
3.1619889105379499 1.8721004229648641 0.0
1.4152458318960037 -0.2937352115919284 0.0
4.2358943074375732 2.4271066813783988 0.0
3.6925549231308077 1.6384142240150619 0.0
3.1481366945939913 2.2157931223690084 0.0
2.8953904380022104 3.0055062127300043 0.0
3.9257188103917091 3.2642912580015797 0.0
0.9891156859586679 0.3059003305563638 0.0
1.7261654128913511 2.4099808563474499 0.0
4.0197460868244406 2.5464863829892739 0.0
3.6897284672306183 -1.3868752331233232 0.0
1.2131524292613960 3.3076047128761310 0.0
1.1791530089727846 0.4789357304265230 0.0
0.9725109307013242 0.3881927273584255 0.0
0.9422656553571966 0.0559597503117741 0.0
4.0881272574383409 2.4582455981670250 0.0
3.8206372370033423 2.8452495168415068 0.0
2.7875768476308784 1.6480733219387855 0.0
1.0311052139858541 1.4857210722116021 0.0
3.9263788643136852 2.6434078216902042 0.0
4.1278431748102236 2.3298940373314379 0.0
4.2783582460055838 2.1630187974499311 0.0
4.0529945467779172 1.8707502500650877 0.0
1.6335706353913639 2.3202225311239886 0.0
3.8037033369277964 -0.1165870503891960 0.0
1.2400801859785542 0.6202564542178938 0.0
3.8757838175929402 1.5047081204810790 0.0
3.9490940871476381 1.3832304556713999 0.0
2.5670464046051964 1.7706332762506822 0.0
3.1048051371444272 1.5101747033680584 0.0
3.0803223627137326 2.1037692434065032 0.0
3.0505198037767629 1.9372114348199432 0.0
3.3575024713573853 1.7385303252292399 0.0
4.0029935618553605 2.2493345820288329 0.0
1.0908058060763564 0.1542019433832342 0.0
2.8673801017465887 2.1222960092281995 0.0
2.4738971328834820 0.8552243322388543 0.0
2.7574605349050167 2.0104905476205439 0.0
2.4970612217151436 -0.0237124453212978 0.0
4.0945878124690420 -0.6961819697510834 0.0
0.9399148964047099 0.9571189125963542 0.0
2.3130270162283004 -1.0760975978956187 0.0
4.0258139122352476 2.5817716463508811 0.0
2.8351878315423171 1.4251076227662711 0.0
3.1076864585303206 1.8196485682646004 0.0
3.4915955102244562 3.9780449068680914 0.0
0.5292464883642439 1.6423861270900326 0.0
3.7345136929298377 2.7381099336258199 0.0
1.5456840952754547 1.8404572912619466 0.0
2.9323004247524445 -0.6822451647527931 0.0
3.7964209542378224 0.8239813836031624 0.0
3.5973672287014762 2.4640988604602168 0.0
0.6429781434871034 0.5105196403765856 0.0
1.2003294442150427 2.2396703083756515 0.0
3.1057214473673715 2.7547655054733937 0.0
1.7180548113580494 2.9227786645118532 0.0
1.0166113136191188 1.8895941739827680 0.0
0.8211973176755618 1.5829448960241235 0.0
1.6637452357351969 3.0813958278530338 0.0
1.4485918990946083 1.1745574635723479 0.0
2.1902699689349019 -1.4149481981434331 0.0
2.1315363205902820 1.5925973583951907 0.0
0.6801931274217212 0.2978097287553084 0.0
0.7669379793265483 0.5819745615199310 0.0
3.9167997625411322 3.4635160083676846 0.0
1.2734547369531011 -0.0759121389807067 0.0
3.3096065088898192 0.8354413291298667 0.0
3.9931674451355041 -0.1169420236912402 0.0
3.8624772910386920 2.3889873978227509 0.0
1.1250736821245189 3.3292141436355909 0.0
2.5960945173601315 0.6962659216134601 0.0
0.6081610804769024 0.3668693445964377 0.0
3.4883178820909349 -0.4381234285921458 0.0
3.6756623805703925 2.6528236555795259 0.0
0.7760358725496442 -0.0120677136130536 0.0
2.6327170614841533 -0.2431629574011240 0.0
2.6933557285279837 1.4462014803053318 0.0
3.6939222559617826 -1.7284162591455619 0.0
0.8311748276617620 0.1078801395627244 0.0
2.4679973381538605 1.5566018378764204 0.0
2.8554346215340454 2.4096293754211633 0.0
2.2254052153375481 1.9540037733215876 0.0
3.8867923672408904 2.5341103255746069 0.0
3.7783578277410514 1.9078610367211044 0.0
2.5385648328762236 1.0981390547714318 0.0
3.7081609891460956 3.7868096754689402 0.0
4.1664992942009729 2.0728162259590799 0.0
0.9452430997585194 0.5981391496229490 0.0
3.1438013919305514 3.2375351348150043 0.0
2.7331336272539781 1.6573040608536698 0.0
4.2034912098782522 2.1619705449980944 0.0
4.1291821301684459 1.9728112239147380 0.0
3.0874432915752061 2.1946189629470880 0.0
3.7204092109471576 2.5685654929842596 0.0
1.2623618741799802 -0.7689931348809042 0.0
3.3586772684064488 0.6511903610083704 0.0
3.9315647265384084 0.1757639935704640 0.0
1.6698338618849431 4.0683854102419463 0.0
2.2599802554148081 1.8751295582721443 0.0
0.7123924738310019 0.6023861432196473 0.0
3.9683618820671320 2.5880766840397302 0.0
4.2634392005680581 2.0999329140887895 0.0
3.9198284324956121 1.1689850677197768 0.0
3.8116838500458314 2.1928819805952293 0.0
3.8181078839742186 2.9081336195187464 0.0
3.4869650360243241 0.1135443078230985 0.0
3.9093955260916076 3.4754415731564365 0.0
3.7698378373974601 2.4567114758045747 0.0
3.6919679673281758 1.9058171465349534 0.0
3.5999280616717217 1.7383475828166204 0.0
2.8354946770724223 1.8051163408322004 0.0
3.4224490143169857 1.3724613244382819 0.0
3.2136159379419640 1.6592468922229677 0.0
3.1492800647118520 2.3362510610012892 0.0
3.2910776481797361 2.4932212024301008 0.0
3.0534262143755146 -0.4749315282560653 0.0
3.6095677562375474 3.8494931541550699 0.0
2.5379794342708251 2.1290702164680977 0.0
2.9057459356834401 1.3949633419515153 0.0
3.8759602914689508 0.5566514399816342 0.0
2.4321190000984680 0.3851330520218214 0.0
3.6042691241505196 1.2105391214325578 0.0
2.7991999903386890 2.6291396770110942 0.0
3.4915968118707141 4.5881150080218527 0.0
3.6349692004009291 2.6395851447498666 0.0
2.2663637784178712 1.3336042381251727 0.0
4.3107793890387951 2.3157742753161150 0.0
3.9821274479913420 2.5704233926851345 0.0
2.8662925852882970 -0.7874686923971024 0.0
4.0990774086428150 1.7687154503167428 0.0
2.5129037350058097 2.0301299985749197 0.0
2.5963418325148999 1.0761418405505974 0.0
3.9152777622074968 2.7073504651422176 0.0
2.7402168123030508 1.3659432027228031 0.0
3.8176629658881249 -0.3737067564724013 0.0
1.9747310361489023 1.4388619618513274 0.0
2.3302373560376535 0.6327744016147453 0.0
2.1539758958477102 0.0593084089217673 0.0
4.1486610716905625 2.4652960117558260 0.0
2.5957264190497376 1.7000651537186002 0.0
2.8164230416360221 2.4495144333561183 0.0
2.9347223395337982 4.7381507216419791 0.0
2.3699754259181285 1.2650436792601651 0.0
2.5255106661444731 2.8806012115663409 0.0
2.2047356556418438 1.6722186384611273 0.0
3.2854082758013292 3.5014818163321366 0.0
1.8522455508783189 1.7734636307493779 0.0
3.9333135676300555 -0.0388182226967497 0.0
3.4824479233321712 2.2640660948425033 0.0
3.8625511835833564 2.5666248475534688 0.0
4.0094343895266524 1.9667478165293562 0.0
4.0010812088299783 2.0510976646582848 0.0
3.6638077369816551 0.4794195519776379 0.0
3.0536938752592921 1.5665584095904082 0.0
1.6458479793628473 1.6770133400888809 0.0
2.2563482713568543 1.0718749758771950 0.0
2.8702670402977764 -1.0422667303716306 0.0
3.7232773552295932 2.5488287465688368 0.0
3.8568269471431109 1.9581971718194866 0.0
1.4897330634463486 0.0894150217111642 0.0
2.0456482125696378 1.0969725626700202 0.0
3.7365520993282590 3.1630550004551403 0.0
1.1609106758366774 0.4562814724333617 0.0
1.8313751006773571 3.2599919576517502 0.0
1.4803087508761956 0.8594109191597614 0.0
3.9376662838808012 1.5417316350925607 0.0
1.8406257583537222 2.2643292336615604 0.0
1.0924066906711059 0.7269022987428848 0.0
2.1237142701181937 2.3886916034628327 0.0
2.7841617180882179 3.3821558307473798 0.0
3.4093575188399519 1.1014059064066408 0.0
3.7211929531878742 0.6682914721763886 0.0
3.5619068930789610 2.2260946352454565 0.0
3.7616118423286382 -1.1024606213968340 0.0
3.2892095197936593 1.7693709073343695 0.0
4.0430533486724745 1.7597783316420696 0.0
1.6626665292369474 -0.3281539950306162 0.0
1.4398833322354472 1.5217977784988388 0.0
3.4388924391307367 2.5835022779847518 0.0
1.3026845660136070 1.8002547256294559 0.0
3.6116786197393123 2.7289227467680082 0.0
3.8748584356691720 1.0734666898136436 0.0
1.4717612741904205 0.7800462845250550 0.0
1.3682977712781097 1.3046933877582461 0.0
3.9047113376368832 -0.8775062805061532 0.0
1.8250337250995070 1.8430436747236756 0.0
1.5112480910059984 0.8448062052962169 0.0
1.3238138080493111 0.1657779399262724 0.0
3.6875568279557074 2.3543454186826902 0.0
3.9051585311307084 0.1954462876950615 0.0
3.1945575785150391 -0.2667640187088172 0.0
1.5934206013075449 3.1018865238570155 0.0
1.1919238914813097 1.0120748105445458 0.0
4.0812759982179321 2.1173605187759774 0.0
1.3396095369595318 0.8118710459723277 0.0
1.5289863314694929 2.7801258604878503 0.0
3.6813939569820384 2.0991896797838763 0.0
1.3588841859814407 -0.2606926169674194 0.0
3.4029809018270876 0.8125546077911786 0.0
3.1579132627212219 2.4904221620455802 0.0
2.6865246464536425 -1.4063661701355425 0.0
4.0623507382741080 2.5989915816320659 0.0
3.4024165716496690 1.9272037100890997 0.0
3.8104813391922945 0.2508964832064534 0.0
2.0000821678948388 3.0560548680708486 0.0
3.6267154156701458 3.6733692668843982 0.0
2.4430197892548908 4.0338097156246846 0.0
0.8660348052462282 0.8209708040812871 0.0
3.7393441243522241 2.5339847183729725 0.0
1.0699168473580472 0.5656996810710562 0.0
2.9433592010158791 0.2771206668092669 0.0
2.1272020569495558 2.2073088113241632 0.0
3.6028763551557761 2.8304969312595043 0.0
3.0477867775085143 1.0470142541282632 0.0
0.8278380792429350 0.5960263670842519 0.0
4.1548183357188835 2.0315974272224788 0.0
4.0454601274204007 -0.3913667997987917 0.0
3.6016954731408419 1.6220244766920564 0.0
2.2661796802902843 1.5725519154276957 0.0
0.7641786058873556 3.4574472050142342 0.0
0.9856994023788888 0.8471403471469869 0.0
4.2100947594677294 1.9715131348804511 0.0
1.3048936195998175 1.0399494643789760 0.0
1.2444942172447169 0.4842651836281326 0.0
3.1266416236018859 1.8515438274115636 0.0
1.4150483773816334 -0.2937698666470028 0.0
4.2332058730894619 2.4276972593224504 0.0
3.6665260631882961 1.6472804365734528 0.0
3.1823692643342207 2.2319783797365851 0.0
2.8944530744975041 2.9981331427108726 0.0
3.9320436255801949 3.2603683057226300 0.0
1.0050742599381148 0.3114169206871577 0.0
1.7261936929998940 2.4101772109971602 0.0
4.0244810474822854 2.5387090131774483 0.0
3.6898291761141930 -1.3871137439045182 0.0
1.2131528559092919 3.3076047121171976 0.0
1.2004095165649267 0.4881990195183813 0.0
0.9519723003487186 0.3791430647259202 0.0
0.9516052497801818 0.0587068700184930 0.0
4.0828388965723388 2.4507261420117170 0.0
3.8300846196978435 2.8280613790241449 0.0
2.7544064196841314 1.6260521970121893 0.0
1.0310590387855993 1.4845465211144919 0.0
3.9402839331503565 2.6305207296908124 0.0
4.1474257764986593 2.3429598674176364 0.0
4.2817158413593184 2.1693220964221505 0.0
4.0320843147816614 1.8834236921421905 0.0
1.6335600258265353 2.3202463467046401 0.0
3.8020113467210006 -0.1101556422218423 0.0
1.2214561610289378 0.6131942417721726 0.0
3.8881003931525191 1.5226479513756632 0.0
3.9497587494309494 1.4031772292351194 0.0
2.5535332360288900 1.7526516485280943 0.0
3.0689369308539329 1.5013465573948634 0.0
3.0591541709589816 2.0793526239583029 0.0
3.0878927485322425 1.9592313636025243 0.0
3.3923969692283360 1.7561341967552326 0.0
3.9771619733418127 2.2402400743364352 0.0
1.0945832680842857 0.1561507603734466 0.0
2.8992642436674489 2.1241148369329279 0.0
2.5009666873890462 0.8690317304277232 0.0
2.7305886155012580 1.9871921208951726 0.0
2.5016327779405385 -0.0173488828238107 0.0
4.0942696745981646 -0.6954103763579297 0.0
0.9400674180646066 0.9569952522195964 0.0
2.3130267407973575 -1.0760945009692622 0.0