# vtk DataFile Version 3.0
LucasCarvalhoTCC Results
ASCII

DATASET POLYDATA
FIELD FieldData 1
TIME 1 1 double
5.0

POINTS 531 float
0.02430399999999999 0.16425 0.0
0.5913384 0.481878 0.0
1.30475 0.591832 0.0
0.774126 0.951272 0.0
0.04779564148251592 0.1966194329439859 0.0
0.0726092153537953 0.2279866320496896 0.0
0.09876577335895967 0.2582426022760065 0.0
0.1262817198684718 0.2872673048853742 0.0
0.1551671626852806 0.3149288071400502 0.0
0.1854238368919928 0.3410826624766006 0.0
0.2170424591499632 0.3655716640299072 0.0
0.2499995164635996 0.3882263409476824 0.0
0.2842534387828506 0.4088665906889567 0.0
0.3197403359862048 0.4273050841371062 0.0
0.3563695945475563 0.4433531534921038 0.0
0.3940201673622058 0.4568300511916809 0.0
0.4325386107291805 0.4675762214989666 0.0
0.4717406913237268 0.4754709112408955 0.0
0.5114182513144845 0.480453442081874 0.0
0.5513531678859215 0.4825464217651069 0.0
0.6182637923774223 0.5096055604109244 0.0
0.647389101376845 0.5350126187545199 0.0
0.6784752958296183 0.5579802184492302 0.0
0.7112421079139344 0.5784810076698811 0.0
0.7454110434104482 0.5965507527581431 0.0
0.7807301979183381 0.6122562812860965 0.0
0.8169827939052532 0.6256694297140926 0.0
0.853985522124928 0.6368498290413532 0.0
0.8915818964261243 0.6458353363890481 0.0
0.9296339776508085 0.6526379336565091 0.0
0.9680139759519513 0.6572432424840469 0.0
1.006596418266983 0.659612648128084 0.0
1.045251165872634 0.6596877658251245 0.0
1.083837680945672 0.657397570658483 0.0
1.122201320191055 0.6526688455666412 0.0
1.160173053543044 0.6454405726452737 0.0
1.197574286953346 0.6356824063786186 0.0
1.23422961949795 0.6234159704281613 0.0
1.26998758503999 0.6087366500005643 0.0
1.285086682927543 0.6256533177085738 0.0
1.263669745906668 0.6583917156018083 0.0
1.240480125919214 0.6898988493917133 0.0
1.215532715641304 0.7200329197235763 0.0
1.188869833862339 0.7486599839005789 0.0
1.160556835593143 0.7756559317113654 0.0
1.130680194163798 0.8009104211039757 0.0
1.099347083827048 0.8243335727704395 0.0
1.066684425336412 0.8458643604021228 0.0
1.03283497048792 0.8654772531176074 0.0
0.9979492572630678 0.8831824104874066 0.0
0.9621749986495024 0.8990166556695112 0.0
0.9256475378616493 0.9130272060048579 0.0
0.8884846540507749 0.9252538945090274 0.0
0.8507866567183312 0.935715378288671 0.0
0.8126405010322847 0.9444016349017643 0.0
0.7365055179612304 0.9396161853607135 0.0
0.699310855231089 0.9266666891603924 0.0
0.6626179171945521 0.9123577070090924 0.0
0.6264901449910028 0.8966765244755546 0.0
0.5909789825447118 0.8796450886595113 0.0
0.556124897941028 0.8613059841617771 0.0
0.5219601957009091 0.8417124664434518 0.0
0.4885110616878257 0.8209207172498462 0.0
0.4558007060429968 0.7989848675704875 0.0
0.4238520247653796 0.775953675763176 0.0
0.3926900138417566 0.7518687036338616 0.0
0.3623437622133722 0.7267636709390595 0.0
0.3328479550295906 0.7006647540504483 0.0
0.3042438201183181 0.6735915983461908 0.0
0.2765795358619001 0.6455588748284606 0.0
0.2499101143933102 0.6165781952942546 0.0
0.2242967982692083 0.5866601984136335 0.0
0.1998060807431611 0.5558166834807132 0.0
0.1765083808984156 0.5240625786010467 0.0
0.154476512720734 0.491417660368959 0.0
0.133784033184808 0.457907916333494 0.0
0.114503564227142 0.4235664945146766 0.0
0.09670517293008124 0.3884342245925089 0.0
0.0804548910754031 0.3525597611689231 0.0
0.06581337946329963 0.3159993090744527 0.0
0.05283482490365372 0.2788161107032479 0.0
0.0415660226296666 0.2410796291505872 0.0
0.03204569406625649 0.2028646095712164 0.0
0.5272009874003867 0.6419624505772817 0.0
0.7421848286576707 0.7716726266421574 0.0
0.8789503364783713 0.7829234141383637 0.0
0.6149390992905563 0.7449438030688011 0.0
0.4064556042659638 0.5942834991165423 0.0
0.9875021850865396 0.7666507358101158 0.0
0.3188065960661005 0.539594034984892 0.0
0.61365100263957 0.6399487878797632 0.0
0.8049090660915541 0.8464379870891131 0.0
0.7099820328572021 0.6828840522539854 0.0
0.5239467234991928 0.7406922291088611 0.0
0.8154056325591208 0.7211774015928547 0.0
0.6676178829014909 0.8152713180209475 0.0
0.4416080359619968 0.674360953773491 0.0
0.489443615375965 0.5654986742123573 0.0
1.076665773779852 0.7387182918829318 0.0
0.250390543112057 0.4877450112830265 0.0
0.5736819937919005 0.5790366884881447 0.0
0.7263706755366466 0.8615301097563091 0.0
0.940143307772686 0.8233944909985552 0.0
0.927065543677544 0.7236459161626674 0.0
0.8744389806957806 0.8609114380468947 0.0
0.336888362650554 0.6081958070931937 0.0
0.2030757334857187 0.4383942902513459 0.0
0.3861483329720647 0.5255533415902591 0.0
0.5621001921466506 0.7923778419149285 0.0
0.6822897332295245 0.7428043323059399 0.0
0.5764061681675353 0.6881266532454204 0.0
1.129195449682892 0.7163224153578123 0.0
0.8157794419559141 0.7831214907157077 0.0
0.3806644703311284 0.6554275822782399 0.0
0.7695737871052837 0.669593045341503 0.0
0.4699375460410929 0.6217118815516158 0.0
0.6830867370872363 0.630350317562806 0.0
1.040416897214502 0.7929392348941093 0.0
0.4604428393605979 0.7321209818568342 0.0
0.8729552856459739 0.7015083313474691 0.0
1.017010765275644 0.7166925631396708 0.0
0.6458785458483771 0.6946878992565794 0.0
0.7733575582969163 0.8941098392103913 0.0
0.4457537579383052 0.5273353624588528 0.0
0.163830623786951 0.3903175742448083 0.0
0.6095823984734953 0.8256600013628639 0.0
0.2618074352614998 0.5435604438425528 0.0
0.6287880420949764 0.5875838132975476 0.0
0.3100402147222924 0.4835410260423071 0.0
0.5422177893302824 0.5343158927797464 0.0
0.9964262112680041 0.8213447667248638 0.0
0.4971609598823845 0.6906859160718212 0.0
0.5740517260168769 0.633982031239429 0.0
0.7423299505107201 0.7218768583704394 0.0
0.767147744476665 0.819658485932403 0.0
0.9427329070375209 0.7774595780066723 0.0
0.8375285793481674 0.8869398470561132 0.0
0.2879426409425497 0.5872676364411625 0.0
0.6797562629663748 0.8647676397847667 0.0
1.171674168522591 0.6949964056806914 0.0
0.5261010885606964 0.6055079299963303 0.0
0.7081534744446967 0.8078672678314597 0.0
0.9681672688626206 0.705385299758921 0.0
0.7364069054947873 0.6432919177737106 0.0
0.363826821075015 0.5678764295233764 0.0
0.826170216989844 0.6605791783255148 0.0
0.1284439337099834 0.3602715082199688 0.0
0.518140828090112 0.783905985497134 0.0
0.8452908336054504 0.8167586152211004 0.0
0.2015204468558833 0.492088055688788 0.0
0.4005883523205732 0.7121294304856254 0.0
0.3551392316798573 0.4864133323669936 0.0
0.2501727034998737 0.4443035857235296 0.0
0.857938396055507 0.7390317828783199 0.0
0.9245301815433076 0.8668102132501951 0.0
0.5702050292970205 0.7323438487067678 0.0
1.111607633075016 0.759318252473435 0.0
0.6317193755596126 0.7853891653733797 0.0
0.7921381265818805 0.7497379312370454 0.0
1.088942426366261 0.7015435214091311 0.0
0.5818207607488639 0.5352340257544296 0.0
0.4203532416309484 0.6369649631143086 0.0
0.4854818714173937 0.5131439318707094 0.0
0.4475429831528036 0.5690430472086269 0.0
0.8968753306595262 0.8225547516037004 0.0
0.6339557898063448 0.8543470494763272 0.0
0.3416564411796998 0.6516449771136894 0.0
1.082970576264455 0.7856036465430698 0.0
0.2255204648032354 0.5229464838393291 0.0
0.7335043541589261 0.9012744999286941 0.0
0.9097052989734319 0.6921177492721042 0.0
0.5363428275528405 0.6992389299864537 0.0
0.9657777897300287 0.8588269742066746 0.0
1.025947476617909 0.7556651119714124 0.0
0.1090829970454354 0.3226173037985549 0.0
0.4836644525169279 0.7663103281018557 0.0
0.6910856326166581 0.777867529208468 0.0
0.6694391877434097 0.5946719355048008 0.0
0.2954883530575775 0.4501042133334518 0.0
0.6746032498128595 0.6643957640016517 0.0
1.054636636429828 0.6974583960183274 0.0
0.8939255235163368 0.7470597914537064 0.0
0.3749741568555516 0.6190655430398917 0.0
1.204101441114554 0.6801433534918062 0.0
0.6130053345415899 0.6785345531932346 0.0
0.7679719108452487 0.8562682874000032 0.0
0.9710820219997449 0.8008372590855476 0.0
0.1608022352294362 0.4242591696906621 0.0
0.2865399820604418 0.5141369963640697 0.0
0.1962258775846918 0.4008383427744516 0.0
0.6210920174972845 0.5516143721732873 0.0
0.4843009180093644 0.6583977883024127 0.0
0.5695029195102991 0.8267073580550881 0.0
0.9562891163300477 0.7436031251145003 0.0
0.4174190173896447 0.5044019081507806 0.0
0.410860431802698 0.5535781448116232 0.0
0.8709320861791604 0.9002602580953145 0.0
0.427354757192076 0.7399041791280969 0.0
0.7107884943357746 0.7172753954970394 0.0
1.030382288537246 0.8267335242583146 0.0
0.7737440530215844 0.7115751739064536 0.0
0.8042035044852396 0.9123190309183211 0.0
0.0480920891272324 0.2181807374272496 0.0
0.3695079235280397 0.6886893012630373 0.0
0.773516204411121 0.7830673827025234 0.0
0.302776671534508 0.6210168062901616 0.0
0.7150573728414059 0.6149413270404035 0.0
0.5863276441271683 0.769748656022605 0.0
1.143752049005473 0.6780480059671409 0.0
0.6477132714923303 0.7318578097016951 0.0
0.8380052680878572 0.8531154611905379 0.0
0.5966224054445893 0.6051703156405629 0.0
0.3207240819522855 0.5772784374275386 0.0
0.3520131451607586 0.5263918604440553 0.0
0.8573528491808811 0.6709738722470224 0.0
0.1797236573643203 0.460867988842514 0.0
0.5540828191547277 0.6661566975721369 0.0
1.158039843450239 0.7357536542887966 0.0
0.08638006908591334 0.286237566592474 0.0
0.790861820497242 0.6466611559014377 0.0
0.5362079962218838 0.8121454698907893 0.0
0.9405172130232713 0.6862060282668497 0.0
0.6039359324506977 0.711463595189489 0.0
0.4440093493753478 0.6096873538428137 0.0
0.5500746279087338 0.7620941994763282 0.0
0.2578504496023611 0.5739900063885278 0.0
0.502526452350101 0.6209820553182169 0.0
0.6799833858912959 0.7033681517905728 0.0
0.7183487148906835 0.7518430858176317 0.0
0.8006701240044786 0.8118713608014352 0.0
0.1304684854221093 0.3934039266496895 0.0
1.00789495394612 0.7937868725857601 0.0
0.696960396255943 0.893370944718147 0.0
0.8258315165019564 0.7538365084989149 0.0
0.8462950259502577 0.775614153529746 0.0
0.4082018839227037 0.6749460331934272 0.0
0.7025889307788081 0.8378536687159448 0.0
0.4666676520109517 0.6984557076050861 0.0
[...]
POINT_DATA 531

VECTORS Velocity float
0.0000000000000000 1.0000000000000000 0.0
0.0000000000000000 1.0000000000000000 0.0
2.6381892420195676 -0.9593313384178889 0.0
1.7806392916562435 1.0216373843964104 0.0
0.0000000000000000 1.0000000000000000 0.0
0.0000000000000000 1.0000000000000000 0.0
0.0000000000000000 1.0000000000000000 0.0
0.0000000000000000 1.0000000000000000 0.0
0.0000000000000000 1.0000000000000000 0.0
0.0000000000000000 1.0000000000000000 0.0
0.0000000000000000 1.0000000000000000 0.0
0.0000000000000000 1.0000000000000000 0.0
0.0000000000000000 1.0000000000000000 0.0
0.0000000000000000 1.0000000000000000 0.0
0.0000000000000000 1.0000000000000000 0.0
0.0000000000000000 1.0000000000000000 0.0
0.0000000000000000 1.0000000000000000 0.0
0.0000000000000000 1.0000000000000000 0.0
0.0000000000000000 1.0000000000000000 0.0
0.0000000000000000 1.0000000000000000 0.0
0.0000000000000000 0.0000000000000000 0.0
0.0000000000000000 0.0000000000000000 0.0
0.0000000000000000 0.0000000000000000 0.0
0.0000000000000000 0.0000000000000000 0.0
0.0000000000000000 0.0000000000000000 0.0
0.0000000000000000 0.0000000000000000 0.0
0.0000000000000000 0.0000000000000000 0.0
0.0000000000000000 0.0000000000000000 0.0
0.0000000000000000 0.0000000000000000 0.0
0.0000000000000000 0.0000000000000000 0.0
0.0000000000000000 0.0000000000000000 0.0
0.0000000000000000 0.0000000000000000 0.0
0.0000000000000000 0.0000000000000000 0.0
0.0000000000000000 0.0000000000000000 0.0
0.0000000000000000 0.0000000000000000 0.0
0.0000000000000000 0.0000000000000000 0.0
0.0000000000000000 0.0000000000000000 0.0
0.0000000000000000 0.0000000000000000 0.0
0.0000000000000000 0.0000000000000000 0.0
2.6783004331842069 -1.7943028411940960 0.0
3.6707350459310470 -2.3036623301042782 0.0
3.7614816006826239 -2.2273052094915649 0.0
3.7622596535290325 -1.9752528966732454 0.0
3.8530958186836504 -1.7611594095623833 0.0
3.9557194810471619 -1.4607284361537498 0.0
4.0150728337089738 -1.3064848328862801 0.0
4.1391148455117301 -1.0810021094883369 0.0
4.1201340698882465 -0.7851009480704503 0.0
4.1017824275279873 -0.5201597974679461 0.0
3.9682450854943485 -0.2267537015696573 0.0
3.7484230655933271 0.0695584611101279 0.0
3.5610685259413644 0.3001746848544460 0.0
3.2037929254324280 0.5461104527340800 0.0
2.5874061903279215 1.0891847086326785 0.0
1.7540185338224481 0.9430315325725025 0.0
0.0000000000000000 0.0000000000000000 0.0
0.0000000000000000 0.0000000000000000 0.0
0.0000000000000000 0.0000000000000000 0.0
0.0000000000000000 0.0000000000000000 0.0
0.0000000000000000 0.0000000000000000 0.0
0.0000000000000000 0.0000000000000000 0.0
0.0000000000000000 0.0000000000000000 0.0
0.0000000000000000 0.0000000000000000 0.0
0.0000000000000000 0.0000000000000000 0.0
0.0000000000000000 0.0000000000000000 0.0
0.0000000000000000 0.0000000000000000 0.0
0.0000000000000000 0.0000000000000000 0.0
0.0000000000000000 0.0000000000000000 0.0
0.0000000000000000 0.0000000000000000 0.0
0.0000000000000000 0.0000000000000000 0.0
0.0000000000000000 0.0000000000000000 0.0
0.0000000000000000 0.0000000000000000 0.0
0.0000000000000000 0.0000000000000000 0.0
0.0000000000000000 0.0000000000000000 0.0
0.0000000000000000 0.0000000000000000 0.0
0.0000000000000000 0.0000000000000000 0.0
0.0000000000000000 0.0000000000000000 0.0
0.0000000000000000 0.0000000000000000 0.0
0.0000000000000000 0.0000000000000000 0.0
0.0000000000000000 0.0000000000000000 0.0
0.0000000000000000 0.0000000000000000 0.0
0.0000000000000000 0.0000000000000000 0.0
0.0000000000000000 0.0000000000000000 0.0
3.9840951180552731 2.6029568387359667 0.0
4.2892941659652761 2.1331460680889731 0.0
3.9162805686668909 1.1727908556235478 0.0
3.8369241271766144 2.2078401352635182 0.0
3.8172997887346112 2.9211937566414621 0.0
3.4527852344533674 0.0874924832350414 0.0
3.9079049132243679 3.4781280466803781 0.0
3.7640187843732527 2.4436844302597565 0.0
3.7423458159759218 1.9364575811429572 0.0
3.5718768372593224 1.7300243006348031 0.0
2.8490524618889075 1.8105266559720854 0.0
3.3674077397622084 1.3695112150134325 0.0
3.2303481284969595 1.6709301629111284 0.0
3.1623854887210068 2.3511459842372981 0.0
3.2660910342386824 2.5073649418906117 0.0
3.0326727324770237 -0.4906450616343924 0.0
3.6098330868706068 3.8489142615814269 0.0
2.5021181424671957 2.1158635334770342 0.0
2.9207450814910256 1.4040333606430635 0.0
3.9127963897191882 0.5437786263043232 0.0
2.3611755405659660 0.3703235886564293 0.0
3.6624007752557812 1.2213764606526236 0.0
2.7995854268557419 2.6336352801545324 0.0
3.4917028579539369 4.5879962914164807 0.0
3.6298147474404532 2.6434246171006448 0.0
2.2715517641772944 1.3360187812579760 0.0
4.3306612809926985 2.3387784800137195 0.0
4.0096771004452023 2.5834247147076792 0.0
2.8565857957097829 -0.7913086316818950 0.0
4.1162470730342644 1.7905141159193516 0.0
2.5181037174730667 2.0376240595745267 0.0
2.5460472178478573 1.0648095316602832 0.0
3.9237880634727480 2.7306489791088331 0.0
2.7046394171785022 1.3438390689521584 0.0
3.8226332524505877 -0.4090213005164895 0.0
1.9818046988405773 1.4441951052299487 0.0
2.2581676127047929 0.6167608930206837 0.0
2.1102172172315203 0.0467413058038198 0.0
4.1596744104235945 2.4708265562450196 0.0
2.6133129984703558 1.7075686985412679 0.0
2.8000208570428331 2.4541178276798052 0.0
2.9347290639552286 4.7381389698772809 0.0
2.3764689213573096 1.2682688044119657 0.0
2.5248008508791844 2.8800845849756329 0.0
2.1687068020575944 1.6429882770425852 0.0
3.2859113203908379 3.5020945811194539 0.0
1.8154099880216916 1.7689708387306793 0.0
3.9699312369482920 -0.0732511658117691 0.0
3.5042888582955687 2.2770950854860823 0.0
3.8672486659027716 2.5694318190489058 0.0
3.9917886847681592 1.9836018087207365 0.0
4.0468984040863232 2.0853563888736275 0.0
3.6441183810233491 0.4607834213935619 0.0
3.0974299721488445 1.5837637461760252 0.0
1.6454223822530907 1.6776780812363015 0.0
2.2621423035811992 1.0743788555840030 0.0
2.8669089099021408 -1.0461848071610955 0.0
3.7170849063484690 2.5585351377533896 0.0
3.8888981794454778 1.9807750910667934 0.0
1.4404705623442440 0.0783011577102247 0.0
2.0099981065962074 1.0873051262199576 0.0
3.7343181019085354 3.1696568814871560 0.0
1.1208297845746356 0.4443540403923664 0.0
1.8313774538833381 3.2599888852005203 0.0
1.4861847268871025 0.8618905448686914 0.0
3.9801086425745944 1.5608887567660048 0.0
1.8405506484900145 2.2639420360664126 0.0
1.0971274361834644 0.7305027624276220 0.0
2.1221953579635202 2.3898098551918325 0.0
2.7846728805580430 3.3820867234103731 0.0
3.3547515949210798 1.0924454197724616 0.0
3.7884536623046428 0.6584023535621553 0.0
3.5849133936920099 2.2369123034124518 0.0
3.7621122425365559 -1.1184145344523173 0.0
3.3053015249128488 1.7793588984078048 0.0
4.0295137527617433 1.7776694086120843 0.0
1.6480991172268502 -0.3316683517071354 0.0
1.4093181108951263 1.5092106234618337 0.0
3.4461683526105680 2.5966956473582115 0.0
1.2842833550641615 1.8012479500992913 0.0
3.5996765278554297 2.7452533150615603 0.0
3.9173170671412332 1.0779870145120525 0.0
1.4775920456576142 0.7825810536960666 0.0
1.3708207764432152 1.3085626908713863 0.0
3.9122249692962163 -0.9106868812376889 0.0
1.8247762649448871 1.8425083807028146 0.0
1.5178862404070188 0.8471097848124433 0.0
1.2726190907847590 0.1587640060874720 0.0
3.7136783942355351 2.3661686586149862 0.0
3.9771753077239187 0.1690192481269339 0.0
3.1612968325426651 -0.2953989931771306 0.0
1.5934206878040991 3.1018868815002421 0.0
1.1982889791985905 1.0169762699291887 0.0
4.1106583175504428 2.1425100558356354 0.0
1.3124925281850155 0.7939579770208507 0.0
1.5296518978277160 2.7802682222957080 0.0
3.6619808606736486 2.0890974821108741 0.0
1.3383670911363792 -0.2656946503977750 0.0
3.3515732788821495 0.7994787575112353 0.0
3.1589633923415570 2.4993666591455694 0.0
2.6860306514034549 -1.4073207737483215 0.0
4.0781259114744142 2.6063675412841421 0.0
3.4366451618855556 1.9498016287634932 0.0
3.8166525373650253 0.2283509795877914 0.0
2.0000958174351120 3.0560062090205800 0.0
3.6265816140323350 3.6736456703995026 0.0
2.4430658213279020 4.0337957400352220 0.0
0.8448787816371489 0.8020640012961663 0.0
3.7585384012780167 2.5535558056039425 0.0
1.0743130291706748 0.5678608537370720 0.0
2.8835440053784755 0.2579032813533533 0.0
2.1194047360176462 2.2095699247062104 0.0
3.5938418344967382 2.8403187022015777 0.0
3.0952196665891232 1.0479773372375387 0.0
0.8322127954291850 0.5988876507485832 0.0
4.1476209222375493 2.0420148452708604 0.0
4.0919422962893623 -0.4321698074419384 0.0
3.5608893386126548 1.6256497636462071 0.0
2.2842137209624158 1.5790725234232945 0.0
0.7641786059103137 3.4574472035915336 0.0
0.9893591112720520 0.8511276657038269 0.0
4.2394672288415931 2.0034825178728557 0.0
1.3053357820785594 1.0414961610765199 0.0
1.2186201973965871 0.4736776965140033 0.0
3.1407464115147348 1.8590387843247411 0.0
1.4094096711340398 -0.2947305135547226 0.0
4.2571194231066016 2.4440477131531568 0.0
3.7220029880586640 1.6691223677677658 0.0
3.1569183924501787 2.2129517253836561 0.0
2.8941127957277004 3.0013620654717368 0.0
3.9296111504448508 3.2634000402554393 0.0
0.9647522335536073 0.3014165195896486 0.0
1.7261966971486502 2.4100244323260314 0.0
4.0502192388460836 2.5494353036502706 0.0
3.6903925623297966 -1.3975950092902707 0.0
1.2131527474067956 3.3076046287605503 0.0
1.1648965931257635 0.4756217546414758 0.0
0.9572075449013923 0.3819994998752278 0.0
0.9124720439682198 0.0547211217829353 0.0
4.1097587462087590 2.4654374757071924 0.0
3.8310522790655286 2.8493565163532919 0.0
2.7658021152406529 1.6302269920472359 0.0
1.0306999298539277 1.4845096702519289 0.0
3.9493563422229836 2.6515286501485824 0.0
4.1491434753553147 2.3511849369544526 0.0
4.2965709046568721 2.1975290663180802 0.0
4.0774983090741372 1.9163610910438853 0.0
1.6335601643157525 2.3202375865401996 0.0
3.8032796250395724 -0.1471768701696483 0.0
1.2259930620824926 0.6159671075682067 0.0
3.8661448720277765 1.5289241718467721 0.0
3.9483153361024490 1.4091840464662382 0.0
2.5613767032590666 1.7589299643970735 0.0
3.0877682005336808 1.5137871660569104 0.0
3.0759815651816766 2.0907805413659624 0.0
3.0563870777056650 1.9358788645737686 0.0
3.3523258415608010 1.7583696662552517 0.0
4.0036379600196774 2.2614791449332667 0.0
1.0616413720098252 0.1479729913021780 0.0
2.8648701769162734 2.1258815799941617 0.0
2.4297405321619046 0.8512898790850330 0.0
2.7440599332597087 1.9963290809477683 0.0
2.4459671513334516 -0.0356003937944419 0.0
4.1275427630098260 -0.7381616077866159 0.0
0.9397372690326482 0.9565818728404889 0.0
2.3129984372976042 -1.0760928426735354 0.0
4.0601699877770949 2.5902294837464162 0.0
2.8356139314883357 1.4263274409712616 0.0
3.1181783564512235 1.8467382131442094 0.0
3.4917897748488604 3.9778947354935128 0.0
0.5238598741388965 1.6423884880334056 0.0
3.7446398246086878 2.7497516470125811 0.0
1.5488157651380405 1.8407957383082114 0.0
2.9193599849062366 -0.6942535446765713 0.0
3.7870830734904701 0.8289907065348443 0.0
3.6146557786059694 2.4701496614350202 0.0
0.6351395326106499 0.5029050499034977 0.0
1.2010739406527613 2.2396139554186179 0.0
3.1055489187546788 2.7521546885010539 0.0
1.7180253159263721 2.9227434931736154 0.0
1.0178211204110292 1.8910758962319061 0.0
0.8154264546820352 1.5833475913548856 0.0
1.6637187475263810 3.0813955057014644 0.0
1.4425987414667407 1.1765410217400187 0.0
2.1903139388323498 -1.4148916624704961 0.0
2.1200605078052264 1.5778723667919734 0.0
0.6688645864446822 0.2941866106906808 0.0
0.7633493911666734 0.5782406981184267 0.0
3.9197425635915963 3.4625261452052118 0.0
1.2657346329378940 -0.0774300120797104 0.0
3.3581728570366511 0.8369365553343875 0.0
4.0578959410230420 -0.1519840878532166 0.0
3.8858426589017574 2.3973539120362668 0.0
1.1250736578604892 3.3292141587375630 0.0
2.5383963575666257 0.6932582397434199 0.0
0.5983744766218935 0.3602776983760049 0.0
3.4709872641365696 -0.4680933231351188 0.0
3.6845830228928400 2.6492912774336923 0.0
0.7557938563426075 -0.0142222257443681 0.0
2.5990896514617856 -0.2596084725642972 0.0
2.6641757948663622 1.4305818855568233 0.0
3.6937017017129494 -1.7333292418138462 0.0
0.8076923440584443 0.1063115056468651 0.0
2.4372224147480326 1.5422485271034225 0.0
2.8539409608064488 2.4173688303669914 0.0
2.2174049459066980 1.9587201622951580 0.0
3.9076566403242508 2.5335838220253466 0.0
3.7774625841105793 1.9269678714085197 0.0
2.5095173688479453 1.1003768594760375 0.0
3.7091083107517195 3.7865372756202729 0.0
4.1838888145112678 2.1079216285500020 0.0
0.9369762559347247 0.5962715680615420 0.0
3.1438554678536805 3.2363879654261365 0.0
2.7202144374273876 1.6641470061245587 0.0
4.2187551980143789 2.1932236285773947 0.0
4.1389986998025829 2.0111372180707381 0.0
3.0957212130201697 2.1903137621887216 0.0
3.7333986401997410 2.5784461388036255 0.0
1.2610994218509486 -0.7695380496947933 0.0
3.3133035694776232 0.6485736866200509 0.0
3.9729212839873607 0.1545417392110000 0.0
1.6698237805120217 4.0683859928109873 0.0
2.2527715238907273 1.8672187876968485 0.0
0.7075255687958847 0.6017116133103336 0.0
3.9945061288955439 2.5955630141869164 0.0
4.2847431753286909 2.1394918946581112 0.0
3.9162808320142921 1.1848393972679818 0.0
3.8185850362670970 2.1969772066148994 0.0
3.8220438934693886 2.9118370746712623 0.0
3.4531961416653418 0.0930414493625131 0.0
3.9096239870222127 3.4746845462163756 0.0
3.7864055225847406 2.4558895183183451 0.0
3.7219880603912014 1.9443978745235759 0.0
3.5965087391950630 1.7451242901061053 0.0
2.8274119926823116 1.7923310614959014 0.0
3.3862080568173085 1.3828383695009856 0.0
3.2034881490501843 1.6603651811065898 0.0
3.1523752329324952 2.3327328927073325 0.0
3.2851482682120410 2.5038499938070671 0.0
3.0327406718780381 -0.4904432857977756 0.0
3.6097754797496742 3.8490954861907669 0.0
2.5249379291782406 2.1230935812625948 0.0
2.8965655054089994 1.3992088645859375 0.0
3.9073470430794570 0.5511699619418223 0.0
2.3690359915326034 0.3761494222353156 0.0
3.6491374951314772 1.2277756930268620 0.0
2.7985500663783047 2.6272545471597151 0.0
3.4915982003740407 4.5880986496005587 0.0
3.6354877036868083 2.6410350168762204 0.0
2.2470304891009785 1.3217039968178186 0.0
4.3304546113314633 2.3413881969536079 0.0
4.0072953724160509 2.5765714061699780 0.0
2.8565253475206114 -0.7914377178349415 0.0
4.1138911195355661 1.8042297354938810 0.0
2.5121324115344854 2.0265302273203041 0.0
2.5698277244944054 1.0761907553826819 0.0
3.9317308803354662 2.7181930775981615 0.0
2.7318054443967257 1.3579997452595818 0.0
3.8224635310305635 -0.4076143886646413 0.0
1.9647956118521523 1.4294598316789628 0.0
2.2732286565817130 0.6230050591350913 0.0
2.1112320863399328 0.0484372132749248 0.0
4.1711069401425744 2.4781372593334252 0.0
2.5949335607762025 1.7069064263240727 0.0
2.8121366169283526 2.4531677698894567 0.0
2.9347134648895490 4.7381541544618075 0.0
2.3519458609289710 1.2555250276224801 0.0
2.5252877944310179 2.8799149752668525 0.0
2.1916292998808826 1.6583178381158503 0.0
3.2862157063857733 3.5015136256409796 0.0
1.8340006431890137 1.7714169098497408 0.0
3.9675064860850533 -0.0698440785730395 0.0
3.4902089243000618 2.2585102461402218 0.0
3.8860421264797496 2.5715283382468495 0.0
4.0090363185478468 1.9952652300893843 0.0
4.0272794490541939 2.0897460105755159 0.0
3.6433940649922647 0.4687453342130682 0.0
3.0851146818934456 1.5868633636377243 0.0
1.6453134800277303 1.6763271272544991 0.0
2.2386725796119711 1.0657279228981640 0.0
2.8668801169043432 -1.0462760225658350 0.0
3.7353917781314299 2.5568877710762377 0.0
3.8653198234090360 1.9748846255893437 0.0
1.4445574261096970 0.0816143451874468 0.0
2.0320281975045713 1.0987422393396207 0.0
3.7372543623718317 3.1635093014785070 0.0
1.1342500212061595 0.4500418392747310 0.0
1.8313751501475390 3.2599926871426725 0.0
1.4687204404899110 0.8505571283978964 0.0
3.9689635422375407 1.5722002947057345 0.0
1.8406229841612631 2.2642354415070258 0.0
1.0891619894129270 0.7230574156371139 0.0
2.1244354924812709 2.3888479456938421 0.0
2.7843242162536495 3.3820810272406820 0.0
3.3663529652594710 1.1045059618801620 0.0
3.7814334768305446 0.6629595769347360 0.0
3.5670420476332900 2.2214626886935558 0.0
3.7622678339843696 -1.1186315881628881 0.0
3.2790440371472309 1.7667079563910220 0.0
4.0396142081502386 1.7907605793287860 0.0
1.6478281118657157 -0.3317405938521175 0.0
1.4247982770479872 1.5154200791791612 0.0
3.4438807518965322 2.5830562584332624 0.0
1.2949624082161162 1.8017779553649118 0.0
3.6118396620468571 2.7385986902644062 0.0
3.9091200842883977 1.0883865484314679 0.0
1.4590847679814629 0.7735413766581561 0.0
1.3676351290760369 1.3030058263809268 0.0
3.9124852585687244 -0.9105939311327316 0.0
1.8250083333092435 1.8427990587640475 0.0
1.5044178181209003 0.8448176075729602 0.0
1.2805390042386711 0.1624501366943516 0.0
3.7001841394694672 2.3513426606024761 0.0
3.9735214038901545 0.1717760748051671 0.0
3.1617684872401202 -0.2926676850773142 0.0
1.5934211275307699 3.1018861431299127 0.0
1.1834817686812349 1.0038155396154163 0.0
4.0933289447192829 2.1385704592117896 0.0
1.3308247801232449 0.8046128353100200 0.0
1.5293219567850844 2.7801361896442653 0.0
3.6871967849534042 2.1033719977503220 0.0
1.3382763928958950 -0.2653175317550845 0.0
3.3571188029160521 0.8099941918250620 0.0
3.1581499948717586 2.4885274415236589 0.0
2.6860295002524723 -1.4073278085927243 0.0
4.0889657940304183 2.6108306492063429 0.0
3.4128933092312055 1.9501578422097838 0.0
3.8143932315978684 0.2338818583635167 0.0
2.0000760155995381 3.0560683711301340 0.0
3.6271056918445468 3.6727792130880381 0.0
2.4430004904124254 4.0338179674787202 0.0
0.8569032070438212 0.8116143786744041 0.0
3.7556683229449432 2.5371586228098728 0.0
1.0588172954212336 0.5598679221761274 0.0
2.8873156155907838 0.2639649750477598 0.0
2.1261928635124283 2.2091042836190762 0.0
3.6027350971615659 2.8350636046559936 0.0
3.0869118041269599 1.0512572205086399 0.0
0.8232757112469582 0.5912317165599084 0.0
4.1631659399390184 2.0530440415874911 0.0
4.0911552113553693 -0.4310330745576522 0.0
3.5820103793424947 1.6392950342988104 0.0
2.2745225117684487 1.5795861195837644 0.0
0.7641786059103137 3.4574472035915340 0.0
0.9839777500405658 0.8445248754612348 0.0
4.2336773403839203 2.0131659350067568 0.0
1.3045250865642037 1.0393253203104849 0.0
1.2367108540219096 0.4816751190287833 0.0
3.1146182014335504 1.8438564716820838 0.0
1.4092922198371309 -0.2947554049231555 0.0
4.2550443531473556 2.4445620240771975 0.0
3.7041152570951015 1.6756376199560488 0.0
3.1822344329098802 2.2242602040489370 0.0
2.8937930830118170 2.9968747732363168 0.0
3.9333240671232295 3.2607295426604561 0.0
0.9754761224685226 0.3053293902251811 0.0
1.7262061349226800 2.4101773228438019 0.0
4.0543200624942717 2.5430600224979307 0.0
3.6904423579230632 -1.3977497433263650 0.0
1.2131529709606659 3.3076046345080736 0.0
1.1801306959117444 0.4824089238070333 0.0
0.9420264376475416 0.3752945628895411 0.0
0.9180871251149918 0.0565752407695588 0.0
4.1059538996233149 2.4597690386083584 0.0
3.8380306210598567 2.8366433982578148 0.0
2.7413790730545098 1.6138588751268366 0.0
1.0308794309484017 1.4841016775478162 0.0
3.9599813181947066 2.6412219893537117 0.0
4.1635039884380580 2.3610360806884407 0.0
4.2987227976179474 2.2028807786286322 0.0
4.0626040436335416 1.9263574748167351 0.0
1.6335536463320464 2.3202492988463663 0.0
3.8025313121166855 -0.1433695972872452 0.0
1.2125216522766384 0.6108915734424979 0.0
3.8746684456629317 1.5427353585308710 0.0
3.9487699419288029 1.4242054630322853 0.0
2.5526209887401428 1.7463432097082305 0.0
3.0615384768079497 1.5077555937202918 0.0
3.0613676949280730 2.0726105718452055 0.0
3.0840518715664622 1.9519749347248043 0.0
3.3776897894823739 1.7718497622408771 0.0
3.9844227789312834 2.2549910063899339 0.0
1.0635623657226327 0.1491133177740281 0.0
2.8877956673629943 2.1265685199508635 0.0
2.4482636940586562 0.8615114552551285 0.0
2.7248376879388529 1.9788511415811800 0.0
2.4484849351923295 -0.0316157137494751 0.0
4.1275521831323791 -0.7378810195243076 0.0
0.9399644758969788 0.9567391916515691 0.0
2.3129995011756814 -1.0760903134719375 0.0