# vtk DataFile Version 3.0
LucasCarvalhoTCC Results
ASCII

DATASET POLYDATA
FIELD FieldData 1
TIME 1 1 double
0.7000000000000001

POINTS 531 float
0.02430399999999999 0.16425 0.0
0.5913384 0.481878 0.0
1.30475 0.591832 0.0
0.774126 0.951272 0.0
0.04779564148251592 0.1966194329439859 0.0
0.0726092153537953 0.2279866320496896 0.0
0.09876577335895967 0.2582426022760065 0.0
0.1262817198684718 0.2872673048853742 0.0
0.1551671626852806 0.3149288071400502 0.0
0.1854238368919928 0.3410826624766006 0.0
0.2170424591499632 0.3655716640299072 0.0
0.2499995164635996 0.3882263409476824 0.0
0.2842534387828506 0.4088665906889567 0.0
0.3197403359862048 0.4273050841371062 0.0
0.3563695945475563 0.4433531534921038 0.0
0.3940201673622058 0.4568300511916809 0.0
0.4325386107291805 0.4675762214989666 0.0
0.4717406913237268 0.4754709112408955 0.0
0.5114182513144845 0.480453442081874 0.0
0.5513531678859215 0.4825464217651069 0.0
0.6182637923774223 0.5096055604109244 0.0
0.647389101376845 0.5350126187545199 0.0
0.6784752958296183 0.5579802184492302 0.0
0.7112421079139344 0.5784810076698811 0.0
0.7454110434104482 0.5965507527581431 0.0
0.7807301979183381 0.6122562812860965 0.0
0.8169827939052532 0.6256694297140926 0.0
0.853985522124928 0.6368498290413532 0.0
0.8915818964261243 0.6458353363890481 0.0
0.9296339776508085 0.6526379336565091 0.0
0.9680139759519513 0.6572432424840469 0.0
1.006596418266983 0.659612648128084 0.0
1.045251165872634 0.6596877658251245 0.0
1.083837680945672 0.657397570658483 0.0
1.122201320191055 0.6526688455666412 0.0
1.160173053543044 0.6454405726452737 0.0
1.197574286953346 0.6356824063786186 0.0
1.23422961949795 0.6234159704281613 0.0
1.26998758503999 0.6087366500005643 0.0
1.285086682927543 0.6256533177085738 0.0
1.263669745906668 0.6583917156018083 0.0
1.240480125919214 0.6898988493917133 0.0
1.215532715641304 0.7200329197235763 0.0
1.188869833862339 0.7486599839005789 0.0
1.160556835593143 0.7756559317113654 0.0
1.130680194163798 0.8009104211039757 0.0
1.099347083827048 0.8243335727704395 0.0
1.066684425336412 0.8458643604021228 0.0
1.03283497048792 0.8654772531176074 0.0
0.9979492572630678 0.8831824104874066 0.0
0.9621749986495024 0.8990166556695112 0.0
0.9256475378616493 0.9130272060048579 0.0
0.8884846540507749 0.9252538945090274 0.0
0.8507866567183312 0.935715378288671 0.0
0.8126405010322847 0.9444016349017643 0.0
0.7365055179612304 0.9396161853607135 0.0
0.699310855231089 0.9266666891603924 0.0
0.6626179171945521 0.9123577070090924 0.0
0.6264901449910028 0.8966765244755546 0.0
0.5909789825447118 0.8796450886595113 0.0
0.556124897941028 0.8613059841617771 0.0
0.5219601957009091 0.8417124664434518 0.0
0.4885110616878257 0.8209207172498462 0.0
0.4558007060429968 0.7989848675704875 0.0
0.4238520247653796 0.775953675763176 0.0
0.3926900138417566 0.7518687036338616 0.0
0.3623437622133722 0.7267636709390595 0.0
0.3328479550295906 0.7006647540504483 0.0
0.3042438201183181 0.6735915983461908 0.0
0.2765795358619001 0.6455588748284606 0.0
0.2499101143933102 0.6165781952942546 0.0
0.2242967982692083 0.5866601984136335 0.0
0.1998060807431611 0.5558166834807132 0.0
0.1765083808984156 0.5240625786010467 0.0
0.154476512720734 0.491417660368959 0.0
0.133784033184808 0.457907916333494 0.0
0.114503564227142 0.4235664945146766 0.0
0.09670517293008124 0.3884342245925089 0.0
0.0804548910754031 0.3525597611689231 0.0
0.06581337946329963 0.3159993090744527 0.0
0.05283482490365372 0.2788161107032479 0.0
0.0415660226296666 0.2410796291505872 0.0
0.03204569406625649 0.2028646095712164 0.0
0.5272009874003867 0.6419624505772817 0.0
0.7421848286576707 0.7716726266421574 0.0
0.8789503364783713 0.7829234141383637 0.0
0.6149390992905563 0.7449438030688011 0.0
0.4064556042659638 0.5942834991165423 0.0
0.9875021850865396 0.7666507358101158 0.0
0.3188065960661005 0.539594034984892 0.0
0.61365100263957 0.6399487878797632 0.0
0.8049090660915541 0.8464379870891131 0.0
0.7099820328572021 0.6828840522539854 0.0
0.5239467234991928 0.7406922291088611 0.0
0.8154056325591208 0.7211774015928547 0.0
0.6676178829014909 0.8152713180209475 0.0
0.4416080359619968 0.674360953773491 0.0
0.489443615375965 0.5654986742123573 0.0
1.076665773779852 0.7387182918829318 0.0
0.250390543112057 0.4877450112830265 0.0
0.5736819937919005 0.5790366884881447 0.0
0.7263706755366466 0.8615301097563091 0.0
0.940143307772686 0.8233944909985552 0.0
0.927065543677544 0.7236459161626674 0.0
0.8744389806957806 0.8609114380468947 0.0
0.336888362650554 0.6081958070931937 0.0
0.2030757334857187 0.4383942902513459 0.0
0.3861483329720647 0.5255533415902591 0.0
0.5621001921466506 0.7923778419149285 0.0
0.6822897332295245 0.7428043323059399 0.0
0.5764061681675353 0.6881266532454204 0.0
1.129195449682892 0.7163224153578123 0.0
0.8157794419559141 0.7831214907157077 0.0
0.3806644703311284 0.6554275822782399 0.0
0.7695737871052837 0.669593045341503 0.0
0.4699375460410929 0.6217118815516158 0.0
0.6830867370872363 0.630350317562806 0.0
1.040416897214502 0.7929392348941093 0.0
0.4604428393605979 0.7321209818568342 0.0
0.8729552856459739 0.7015083313474691 0.0
1.017010765275644 0.7166925631396708 0.0
0.6458785458483771 0.6946878992565794 0.0
0.7733575582969163 0.8941098392103913 0.0
0.4457537579383052 0.5273353624588528 0.0
0.163830623786951 0.3903175742448083 0.0
0.6095823984734953 0.8256600013628639 0.0
0.2618074352614998 0.5435604438425528 0.0
0.6287880420949764 0.5875838132975476 0.0
0.3100402147222924 0.4835410260423071 0.0
0.5422177893302824 0.5343158927797464 0.0
0.9964262112680041 0.8213447667248638 0.0
0.4971609598823845 0.6906859160718212 0.0
0.5740517260168769 0.633982031239429 0.0
0.7423299505107201 0.7218768583704394 0.0
0.767147744476665 0.819658485932403 0.0
0.9427329070375209 0.7774595780066723 0.0
0.8375285793481674 0.8869398470561132 0.0
0.2879426409425497 0.5872676364411625 0.0
0.6797562629663748 0.8647676397847667 0.0
1.171674168522591 0.6949964056806914 0.0
0.5261010885606964 0.6055079299963303 0.0
0.7081534744446967 0.8078672678314597 0.0
0.9681672688626206 0.705385299758921 0.0
0.7364069054947873 0.6432919177737106 0.0
0.363826821075015 0.5678764295233764 0.0
0.826170216989844 0.6605791783255148 0.0
0.1284439337099834 0.3602715082199688 0.0
0.518140828090112 0.783905985497134 0.0
0.8452908336054504 0.8167586152211004 0.0
0.2015204468558833 0.492088055688788 0.0
0.4005883523205732 0.7121294304856254 0.0
0.3551392316798573 0.4864133323669936 0.0
0.2501727034998737 0.4443035857235296 0.0
0.857938396055507 0.7390317828783199 0.0
0.9245301815433076 0.8668102132501951 0.0
0.5702050292970205 0.7323438487067678 0.0
1.111607633075016 0.759318252473435 0.0
0.6317193755596126 0.7853891653733797 0.0
0.7921381265818805 0.7497379312370454 0.0
1.088942426366261 0.7015435214091311 0.0
0.5818207607488639 0.5352340257544296 0.0
0.4203532416309484 0.6369649631143086 0.0
0.4854818714173937 0.5131439318707094 0.0
0.4475429831528036 0.5690430472086269 0.0
0.8968753306595262 0.8225547516037004 0.0
0.6339557898063448 0.8543470494763272 0.0
0.3416564411796998 0.6516449771136894 0.0
1.082970576264455 0.7856036465430698 0.0
0.2255204648032354 0.5229464838393291 0.0
0.7335043541589261 0.9012744999286941 0.0
0.9097052989734319 0.6921177492721042 0.0
0.5363428275528405 0.6992389299864537 0.0
0.9657777897300287 0.8588269742066746 0.0
1.025947476617909 0.7556651119714124 0.0
0.1090829970454354 0.3226173037985549 0.0
0.4836644525169279 0.7663103281018557 0.0
0.6910856326166581 0.777867529208468 0.0
0.6694391877434097 0.5946719355048008 0.0
0.2954883530575775 0.4501042133334518 0.0
0.6746032498128595 0.6643957640016517 0.0
1.054636636429828 0.6974583960183274 0.0
0.8939255235163368 0.7470597914537064 0.0
0.3749741568555516 0.6190655430398917 0.0
1.204101441114554 0.6801433534918062 0.0
0.6130053345415899 0.6785345531932346 0.0
0.7679719108452487 0.8562682874000032 0.0
0.9710820219997449 0.8008372590855476 0.0
0.1608022352294362 0.4242591696906621 0.0
0.2865399820604418 0.5141369963640697 0.0
0.1962258775846918 0.4008383427744516 0.0
0.6210920174972845 0.5516143721732873 0.0
0.4843009180093644 0.6583977883024127 0.0
0.5695029195102991 0.8267073580550881 0.0
0.9562891163300477 0.7436031251145003 0.0
0.4174190173896447 0.5044019081507806 0.0
0.410860431802698 0.5535781448116232 0.0
0.8709320861791604 0.9002602580953145 0.0
0.427354757192076 0.7399041791280969 0.0
0.7107884943357746 0.7172753954970394 0.0
1.030382288537246 0.8267335242583146 0.0
0.7737440530215844 0.7115751739064536 0.0
0.8042035044852396 0.9123190309183211 0.0
0.0480920891272324 0.2181807374272496 0.0
0.3695079235280397 0.6886893012630373 0.0
0.773516204411121 0.7830673827025234 0.0
0.302776671534508 0.6210168062901616 0.0
0.7150573728414059 0.6149413270404035 0.0
0.5863276441271683 0.769748656022605 0.0
1.143752049005473 0.6780480059671409 0.0
0.6477132714923303 0.7318578097016951 0.0
0.8380052680878572 0.8531154611905379 0.0
0.5966224054445893 0.6051703156405629 0.0
0.3207240819522855 0.5772784374275386 0.0
0.3520131451607586 0.5263918604440553 0.0
0.8573528491808811 0.6709738722470224 0.0
0.1797236573643203 0.460867988842514 0.0
0.5540828191547277 0.6661566975721369 0.0
1.158039843450239 0.7357536542887966 0.0
0.08638006908591334 0.286237566592474 0.0
0.790861820497242 0.6466611559014377 0.0
0.5362079962218838 0.8121454698907893 0.0
0.9405172130232713 0.6862060282668497 0.0
0.6039359324506977 0.711463595189489 0.0
0.4440093493753478 0.6096873538428137 0.0
0.5500746279087338 0.7620941994763282 0.0
0.2578504496023611 0.5739900063885278 0.0
0.502526452350101 0.6209820553182169 0.0
0.6799833858912959 0.7033681517905728 0.0
0.7183487148906835 0.7518430858176317 0.0
0.8006701240044786 0.8118713608014352 0.0
0.1304684854221093 0.3934039266496895 0.0
1.00789495394612 0.7937868725857601 0.0
0.696960396255943 0.893370944718147 0.0
0.8258315165019564 0.7538365084989149 0.0
0.8462950259502577 0.775614153529746 0.0
0.4082018839227037 0.6749460331934272 0.0
0.7025889307788081 0.8378536687159448 0.0
0.4666676520109517 0.6984557076050861 0.0
[...]
POINT_DATA 531

VECTORS Velocity float
0.0000000000000000 1.0000000000000000 0.0
0.0000000000000000 1.0000000000000000 0.0
2.6394645474600646 -0.9571784482871877 0.0
2.0735763151902380 1.0634359948903804 0.0
0.0000000000000000 1.0000000000000000 0.0
0.0000000000000000 1.0000000000000000 0.0
0.0000000000000000 1.0000000000000000 0.0
0.0000000000000000 1.0000000000000000 0.0
0.0000000000000000 1.0000000000000000 0.0
0.0000000000000000 1.0000000000000000 0.0
0.0000000000000000 1.0000000000000000 0.0
0.0000000000000000 1.0000000000000000 0.0
0.0000000000000000 1.0000000000000000 0.0
0.0000000000000000 1.0000000000000000 0.0
0.0000000000000000 1.0000000000000000 0.0
0.0000000000000000 1.0000000000000000 0.0
0.0000000000000000 1.0000000000000000 0.0
0.0000000000000000 1.0000000000000000 0.0
0.0000000000000000 1.0000000000000000 0.0
0.0000000000000000 1.0000000000000000 0.0
0.0000000000000000 0.0000000000000000 0.0
0.0000000000000000 0.0000000000000000 0.0
0.0000000000000000 0.0000000000000000 0.0
0.0000000000000000 0.0000000000000000 0.0
0.0000000000000000 0.0000000000000000 0.0
0.0000000000000000 0.0000000000000000 0.0
0.0000000000000000 0.0000000000000000 0.0
0.0000000000000000 0.0000000000000000 0.0
0.0000000000000000 0.0000000000000000 0.0
0.0000000000000000 0.0000000000000000 0.0
0.0000000000000000 0.0000000000000000 0.0
0.0000000000000000 0.0000000000000000 0.0
0.0000000000000000 0.0000000000000000 0.0
0.0000000000000000 0.0000000000000000 0.0
0.0000000000000000 0.0000000000000000 0.0
0.0000000000000000 0.0000000000000000 0.0
0.0000000000000000 0.0000000000000000 0.0
0.0000000000000000 0.0000000000000000 0.0
0.0000000000000000 0.0000000000000000 0.0
2.6797246686068479 -1.7998273539720713 0.0
3.6680994886451654 -2.3133012290694119 0.0
3.7026080644677024 -2.1793366185120147 0.0
3.6192343776535973 -1.7692175549787166 0.0
3.4088044905753185 -1.3298596926411583 0.0
3.3454291732679944 -0.9779449967046510 0.0
3.3512936408414209 -0.7252561379179161 0.0
3.3180779766280049 -0.5219518869004628 0.0
3.2614992775135567 -0.2599430184025202 0.0
3.2572414191454349 -0.0595195207521681 0.0
3.2146717421168720 0.1378170561695101 0.0
3.1330414560719819 0.3277744342135154 0.0
3.0898090893696457 0.4890732952014820 0.0
2.9759763309028386 0.6417738218670955 0.0
2.6883971181099899 0.9797299343495853 0.0
2.2096052127219057 0.8910727676134810 0.0
0.0000000000000000 0.0000000000000000 0.0
0.0000000000000000 0.0000000000000000 0.0
0.0000000000000000 0.0000000000000000 0.0
0.0000000000000000 0.0000000000000000 0.0
0.0000000000000000 0.0000000000000000 0.0
0.0000000000000000 0.0000000000000000 0.0
0.0000000000000000 0.0000000000000000 0.0
0.0000000000000000 0.0000000000000000 0.0
0.0000000000000000 0.0000000000000000 0.0
0.0000000000000000 0.0000000000000000 0.0
0.0000000000000000 0.0000000000000000 0.0
0.0000000000000000 0.0000000000000000 0.0
0.0000000000000000 0.0000000000000000 0.0
0.0000000000000000 0.0000000000000000 0.0
0.0000000000000000 0.0000000000000000 0.0
0.0000000000000000 0.0000000000000000 0.0
0.0000000000000000 0.0000000000000000 0.0
0.0000000000000000 0.0000000000000000 0.0
0.0000000000000000 0.0000000000000000 0.0
0.0000000000000000 0.0000000000000000 0.0
0.0000000000000000 0.0000000000000000 0.0
0.0000000000000000 0.0000000000000000 0.0
0.0000000000000000 0.0000000000000000 0.0
0.0000000000000000 0.0000000000000000 0.0
0.0000000000000000 0.0000000000000000 0.0
0.0000000000000000 0.0000000000000000 0.0
0.0000000000000000 0.0000000000000000 0.0
0.0000000000000000 0.0000000000000000 0.0
3.1915448644141278 2.2166770721763340 0.0
3.5354111647572806 1.5609745865554481 0.0
3.5136105545649596 0.8951933033060629 0.0
3.4142295412792274 1.9566912768455602 0.0
3.3398888344782041 2.6957515153263363 0.0
3.5820364495152877 0.2009646047813237 0.0
3.6612016986650446 3.3495858561780660 0.0
3.3019111700833097 2.2312618816238481 0.0
3.3333635143525928 1.3805008694179342 0.0
3.5670066106329412 1.7424854249162134 0.0
3.1884424300119676 2.0956476616473378 0.0
3.6283327807437606 1.2444871300003097 0.0
3.4608185075266387 1.7447730170383735 0.0
3.1291106299860996 2.4684259728228390 0.0
3.1809321665920587 2.2391103467280478 0.0
3.4510454615711157 -0.3451490803512152 0.0
3.5029217006027631 3.9191063742888947 0.0
2.8103342348983373 2.2014914420837588 0.0
3.4298689433895033 1.4796143763553506 0.0
3.3800936157123420 0.4875481458478205 0.0
3.2414589634429971 0.5000210601787594 0.0
3.2276966780431540 0.8923092289369646 0.0
2.9085691735165851 2.8332369712783194 0.0
3.4701159833821942 4.5952207098107971 0.0
3.4830877867170025 2.5167988989819108 0.0
2.9114872829842855 1.7348838814707841 0.0
3.5383051026436489 1.7947249768964870 0.0
3.3098654480668501 2.1443071653377350 0.0
3.2339007949014333 -0.7485247522971553 0.0
3.4877228809909950 1.2781158970887379 0.0
2.7173645281241670 2.4199699171818727 0.0
3.1171734052750688 1.1903605223732934 0.0
3.1852072250265455 2.3540639502147203 0.0
3.1399330458664569 1.6780017025298599 0.0
3.4605467997882271 -0.1430116663291359 0.0
2.6246900014390504 1.8346092316216129 0.0
3.1380342923260880 0.7818026722337934 0.0
2.9387523450346262 0.1278603125029091 0.0
3.4524960945018508 2.0092528459877901 0.0
3.0402166534525872 1.7618832720177491 0.0
2.9560756464230922 2.3124136934169441 0.0
2.9366375738495387 4.7336300854248412 0.0
2.9888448547540492 1.5542479726510385 0.0
2.5616778377514557 3.0908478978673757 0.0
2.6788295873640697 2.0159787786736785 0.0
3.1504562990026157 3.3871707516210079 0.0
2.3281544300265322 1.8763538575174441 0.0
3.3731485664726040 0.1356759255826580 0.0
3.3161667624320641 2.2320220825485224 0.0
3.1913440128867823 2.2009588867634782 0.0
3.6251061510244647 1.5695439983613917 0.0
3.4856420310755021 1.5134161149951717 0.0
3.5311378830202744 0.4575407475801496 0.0
3.0240242005157798 1.2010701790277236 0.0
1.8592508042559743 1.8607981499999480 0.0
2.9280681861729581 1.4232470593965443 0.0
3.1226611776065174 -0.8899116793449603 0.0
3.1598419199079881 2.2369560441286485 0.0
3.5295477825764636 1.7372183188028534 0.0
2.2174915545292837 0.1958055647276515 0.0
2.4418799417688128 1.1874789556629306 0.0
3.4815003245690868 3.0188736666915901 0.0
1.6822930592007026 0.6062259334529986 0.0
1.8308848406051874 3.2603156427294890 0.0
1.9495159533575337 1.1980670133767231 0.0
3.3736633561243985 1.0933415332911576 0.0
1.8296758337900185 2.3249514962423956 0.0
1.4652133754056116 1.0682010367545145 0.0
2.1085383398476703 2.3808712247195403 0.0
2.7196925164812376 3.3623265446307573 0.0
3.6088841181149678 1.0343503073152893 0.0
3.2241089752943672 0.5829332166329725 0.0
3.3444772791087374 2.1594436820338290 0.0
3.5094315140371521 -0.7518403350291610 0.0
3.4308303471425883 1.7935519094930397 0.0
3.5868386520635718 1.3386254949184622 0.0
2.1701548128401118 -0.3542371985223379 0.0
1.8530841704865917 1.6851072320124574 0.0
3.1575469371825755 2.6424712401552362 0.0
1.6085799920834187 1.7957886059639330 0.0
3.2933320926669385 2.3825369308892275 0.0
3.3626797963458528 0.7823344074963731 0.0
1.9703961789446340 1.0328204084637029 0.0
1.5681995788807979 1.5736400613452335 0.0
3.5040299602122684 -0.4180742298249329 0.0
1.8299227556831728 1.9940961174810976 0.0
1.9699872604537285 1.0083042147282979 0.0
2.0232689270424431 0.2520666930378761 0.0
3.3655252162848668 2.2158919615148043 0.0
3.2734062457841930 0.3226623685103338 0.0
3.4764687163949626 -0.0830995084165435 0.0
1.5928007721894630 3.1021773499404275 0.0
1.6580435673548635 1.3294214247284057 0.0
3.5688732162004038 1.7560471446005239 0.0
1.7252014330404890 1.0765191951180264 0.0
1.5297309114572870 2.7515975215796287 0.0
3.4809399867462578 1.9814320970114232 0.0
1.9004552212844412 -0.2554798210377429 0.0
3.5661877262499271 0.8042922353700165 0.0
3.1025011101673847 2.7029713233386197 0.0
2.7556084807231471 -1.2547346100487129 0.0
3.3504988011388552 2.0813334238563841 0.0
3.4205397270702349 1.6689138279200473 0.0
3.4465303864681252 0.2854066090813018 0.0
1.9983352301575936 3.0550900434050567 0.0
3.3880617169759457 3.6071139656652456 0.0
2.4433905870606130 4.0295407116657023 0.0
1.1656544740599808 1.0880033501611179 0.0
3.2030583517459643 2.3115344227573886 0.0
1.5481107400990051 0.8225868675516309 0.0
3.4886471360073288 0.3597274420221071 0.0
2.2042507579680604 2.1322210939459132 0.0
3.3763579818010490 2.5577184402075286 0.0
2.9551574952923776 0.8729267462331558 0.0
1.2262489986624363 0.9181442969472493 0.0
3.6278456037091802 1.7083045611255001 0.0
3.3534061259553960 -0.0593637418631168 0.0
3.6062202382219053 1.4182871785668960 0.0
2.5717564744283590 1.4384118892985294 0.0
0.7641908556232953 3.4574420491120836 0.0
1.2772660038784891 1.1495970271247160 0.0
3.5002491521573851 1.4249774795127601 0.0
1.4739110347374980 1.2326143219321095 0.0
1.5731856726429063 0.6340239258917878 0.0
3.3336848697522439 1.9809676030647276 0.0
1.7821952583401848 -0.3226109274309203 0.0
3.4612739494277767 1.9282009076653330 0.0
3.3021823010819760 1.1899342592064683 0.0
3.1288878826462447 2.2292424899916976 0.0
2.9988176772767288 3.0630453672894058 0.0
3.6453345673967168 3.0963054669479253 0.0
1.5386493673125696 0.4355966252539051 0.0
1.7153113235268325 2.4243994123862644 0.0
3.2481562630199896 2.1848193134324969 0.0
3.4931235187890950 -1.0002306280790689 0.0
1.2131761123467866 3.3076048607631217 0.0
1.6536730472626628 0.6602446377971702 0.0
1.3922410147565358 0.5729316248847863 0.0
1.5009599225495527 0.0937333361234047 0.0
3.3844543826211955 2.0291517294649060 0.0
3.2157479895734062 2.4934435150147936 0.0
3.1223495274564170 1.9457598037877428 0.0
1.1806205234459963 1.6951199577868667 0.0
3.1808257608657322 2.2625458290782876 0.0
3.5365734349739357 1.9254039514746804 0.0
3.5626195886578320 1.6524305502086993 0.0
3.4275189621996471 1.3347948773060840 0.0
1.6350307234848267 2.3205778072032071 0.0
3.4788239184996708 0.0831449961014745 0.0
1.7092846700825786 0.7737189891952057 0.0
3.5526381499305972 1.2092151197822070 0.0
3.4956312228537487 1.0890423656891794 0.0
2.8221883411257824 2.2138679332443214 0.0
3.3564977575390214 1.5290659288888735 0.0
3.1423024384031346 2.2219920258511530 0.0
3.2684227651176729 2.0871162229653497 0.0
3.5613876400531779 1.5972679523982152 0.0
3.5452843127776146 1.8458934516887537 0.0
1.6527027553320004 0.2405935091657377 0.0
3.0069551498060672 2.0718389660429413 0.0
3.2481248780702088 1.0570879919702381 0.0
3.1051528847091854 2.1203536061970882 0.0
3.2603193970834146 0.0672576712082218 0.0
3.3852203916781418 -0.2272553725287461 0.0
1.0291792360099132 1.1370918123184288 0.0
2.3500934427781917 -1.0403297527528785 0.0
3.2740490281450936 2.1556219089166744 0.0
3.1729436848661292 1.7125199710591001 0.0
3.1356767282924620 1.4591997817349052 0.0
3.4199835719167053 4.0331998921619601 0.0
0.8082952110300673 1.6638603626547270 0.0
3.2246343742326644 2.3161050473446472 0.0
1.5950059479348331 1.8454808172470620 0.0
3.2563791175130521 -0.5427429654579660 0.0
3.5032057901274878 0.6961357818432600 0.0
3.1676236688221020 2.2006111827123616 0.0
0.9765819150148807 0.7704581473846897 0.0
1.2415090883018121 2.2378403817494661 0.0
3.1302625769393693 2.8915999297043364 0.0
1.7095366978525364 2.9323003295042658 0.0
1.1989645759406191 1.9039466687356215 0.0
1.1710514835273291 1.6129682389004643 0.0
1.6668809048132498 3.0797799653590259 0.0
1.7872936874101455 1.2945247715106707 0.0
2.1929361644542023 -1.4115501626934179 0.0
2.6251207313479976 2.0732596392038078 0.0
1.0307445539501594 0.4412315201966231 0.0
1.0755964098615916 0.8053637168111806 0.0
3.6455050043392254 3.3243857040514402 0.0
1.6558941016707311 -0.0760578730132516 0.0
3.0448522964924214 0.7171675081789364 0.0
3.2900004468615784 0.1356396752291916 0.0
3.4573834219301478 2.1162081066238048 0.0
1.1251630864332407 3.3291684971599493 0.0
3.3929198670707139 0.7643778234107533 0.0
0.9163454144243494 0.5511469999298313 0.0
3.5469557503546771 -0.1418346011584325 0.0
3.1962115165174421 2.4477822301079284 0.0
1.2191504818299135 -0.0079926814870056 0.0
3.2585809498449652 -0.1296870404467124 0.0
3.2735492088303411 1.7853092499378114 0.0
3.6043756213357621 -1.3444965220007430 0.0
1.3342893619601064 0.1505319387116998 0.0
3.1038916761935749 1.7929267397746973 0.0
3.0792299783207655 2.2083301492970855 0.0
2.6864162639915961 1.9022002744660926 0.0
3.2517077970299506 2.2220272249317383 0.0
3.5956507250065659 1.6474481966460479 0.0
3.1943241861882958 1.2109785844286709 0.0
3.5261776620145513 3.6782161773455080 0.0
3.5234385947798419 1.5789397476124680 0.0
1.3328940506318849 0.8075098738858749 0.0
3.0678740694538105 3.3776755477325469 0.0
3.2146431327538845 1.7002513276211622 0.0
3.5388123456110123 1.6565740280538306 0.0
3.5894802800610530 1.5078831903026184 0.0
3.1447956233489389 2.3025958097180284 0.0
3.2062752557642620 2.2547809356663806 0.0
1.4684754129278330 -0.7669950782043550 0.0
3.5751061459055311 0.6437863564744037 0.0
3.3531467881432278 0.2895979114939220 0.0
1.6700179600216734 4.0668942520806741 0.0
2.6991252600742337 2.1697090797902843 0.0
0.9464997844469693 0.6530608951520890 0.0
3.2187360154394060 2.2035667563649253 0.0
3.5218451042202559 1.5714570372198200 0.0
3.5065102694841812 0.9347608918981406 0.0
3.3603852802755130 1.9223254512245047 0.0
3.3571513964786752 2.6592744917348399 0.0
3.5851462574487796 0.2422097684323515 0.0
3.6777611096646154 3.3207834710160120 0.0
3.3725974567524006 2.2756506107546359 0.0
3.2411815979678584 1.4013617329895787 0.0
3.6661656556757469 1.8019410994701108 0.0
3.0901787709313466 2.0206619453071446 0.0
3.7204631318194936 1.2846538048140894 0.0
3.3517327041738887 1.6951713581532142 0.0
3.0660796506160883 2.3972056324558921 0.0
3.2772492931596293 2.2406406849888083 0.0
3.4582888939535144 -0.3205080730812706 0.0
3.5121273156064432 3.8939188067762913 0.0
2.9171861130950529 2.2443447314287122 0.0
3.3038852702161088 1.4467978074751133 0.0
3.3086213973298269 0.5303456752574506 0.0
3.3298358647481985 0.5324780772600990 0.0
3.1301986127573471 0.9308331748821238 0.0
2.8668500842549154 2.7674278981510221 0.0
3.4765709993897476 4.5892261800717220 0.0
3.5587379205517351 2.5178274942238801 0.0
2.7916454706655753 1.6629115528823946 0.0
3.5386015509867161 1.7992146375761626 0.0
3.3032093255644801 2.1308119068520406 0.0
3.2375261195316321 -0.7414548247140816 0.0
3.4772792609046119 1.3061562861638247 0.0
2.6531452385704908 2.3394530656847521 0.0
3.2438828187598241 1.2413287199325258 0.0
3.2057862655615716 2.3264215229083760 0.0
3.2710667680181618 1.7506491385081715 0.0
3.4234468103750815 -0.1023167147719188 0.0
2.5177441469118897 1.7598957992362132 0.0
3.2556745882888976 0.8148666898356024 0.0
2.9913200303529437 0.1458811333742841 0.0
3.4875384931428024 2.0281860401550595 0.0
2.9209183966667194 1.7525282071723272 0.0
3.0590879478721549 2.3215599778576936 0.0
2.9386709032395801 4.7321756064079707 0.0
2.8668560667983964 1.4944454409629289 0.0
2.5446363295624281 3.0497418886150798 0.0
2.7975675437812835 2.0995247219072821 0.0
3.1944821131529397 3.4000354679151306 0.0
2.4421633531051663 1.8976097514368595 0.0
3.3079997551207918 0.1818482908443591 0.0
3.2552788440093110 2.1748250040747892 0.0
3.2457405047567462 2.2142415660316384 0.0
3.6855447313763330 1.5981930064372489 0.0
3.4192986479117669 1.5211935342297740 0.0
3.5181993693372799 0.4961671897025873 0.0
2.9277195645711718 1.2202106369919978 0.0
1.8245976994937712 1.8194802947512636 0.0
2.8050325168270329 1.3664681852379403 0.0
3.1248632549950242 -0.8817790955212493 0.0
3.2198483491629957 2.2439138759552573 0.0
3.4549373774164893 1.7108278239023080 0.0
2.2928394932978575 0.2194858763239045 0.0
2.5586027291627533 1.2404053255619958 0.0
3.4976712868489739 2.9843981761342824 0.0
1.7813241906012438 0.6407775705996555 0.0
1.8316224301628616 3.2593787656984046 0.0
1.8566754433038695 1.1348002989040111 0.0
3.3143850993255461 1.1287683380601852 0.0
1.8228327455729083 2.3070231757254249 0.0
1.3958425214844030 1.0096377733119841 0.0
2.1660950435624615 2.3903706227740664 0.0
2.7435167386797445 3.3632762069136395 0.0
3.6784741992318137 1.0739847312973620 0.0
3.1457557656409367 0.6189068499727670 0.0
3.2846661171994285 2.1101829703632471 0.0
3.4967581605140667 -0.7355406951120516 0.0
3.3334014135193772 1.7456677732019861 0.0
3.6220929764390877 1.3660774329799570 0.0
2.1905157149390386 -0.3491123315383299 0.0
1.9466535531161619 1.7269853953268055 0.0
3.1267127575364704 2.5796996217311761 0.0
1.6999242954248346 1.8064389582222744 0.0
3.3648891730460306 2.3681932322167598 0.0
3.2901797894953599 0.8302363360733869 0.0
1.8687703860505078 0.9830695324510691 0.0
1.5188028421664230 1.5141645750231822 0.0
3.4829298938164759 -0.3902439430252120 0.0
1.8185164045557889 1.9669833691826313 0.0
1.8783196575651404 0.9861971560655362 0.0
2.1142148590198810 0.2750444854234136 0.0
3.3169862659748022 2.1724007718100617 0.0
3.2127771981938955 0.3547385599462201 0.0
3.4862958288750003 -0.0426341419480301 0.0
1.5928901908110378 3.1022433118240751 0.0
1.5688996772207096 1.2593529206774985 0.0
3.5163219419270568 1.7400309036771873 0.0
1.8302860789385225 1.1399409548480985 0.0
1.5602800369171237 2.7640409165366888 0.0
3.5725481449776408 2.0319928822220077 0.0
1.9359631531961263 -0.2469571450099880 0.0
3.6103261214823466 0.8457318179956611 0.0
3.0671108196824100 2.6281179932913949 0.0
2.7559873312620655 -1.2523641458145511 0.0
3.3826941225620275 2.0940131300786540 0.0
3.3120553160363913 1.6624331154030845 0.0
3.4030774927710619 0.3247571491747318 0.0
1.9986121397388454 3.0491393367638127 0.0
3.4043116631639383 3.5873162148714592 0.0
2.4489716888437836 4.0296486404553624 0.0
1.2413738863851658 1.1533093640676577 0.0
3.1835138559687031 2.2679050418039330 0.0
1.4561843800291174 0.7739650477210047 0.0
3.5429503379734100 0.3947920603361428 0.0
2.2835479286488187 2.1428464273219685 0.0
3.4522812714551030 2.5469587183199183 0.0
2.8792348562898957 0.9024951907179978 0.0
1.1568928621067951 0.8644778643612075 0.0
3.6785690103807607 1.7409527445728230 0.0
3.3079066954336311 -0.0285673148539129 0.0
3.6950539659325816 1.4584018376276664 0.0
2.4909817365757649 1.4439738818215633 0.0
0.7641908556232954 3.4574420491120836 0.0
1.2193480845385745 1.0931179026847608 0.0
3.4817642254713643 1.4421460965937833 0.0
1.4364527030948802 1.1878487580687047 0.0
1.6773452713565524 0.6814049354536748 0.0
3.2365183607836512 1.9227751775860391 0.0
1.7936857764280412 -0.3223984699600604 0.0
3.4567642552277396 1.9271787436115551 0.0
3.1966248065955334 1.2244324627263639 0.0
3.2263412420710633 2.2817866210403128 0.0
2.9664219457689716 3.0078153088014523 0.0
3.7065843114056669 3.0953371193484367 0.0
1.6318449202918355 0.4613104650272278 0.0
1.7117958095632986 2.4138541853477307 0.0
3.2573651444995848 2.1730196314300061 0.0
3.4867528749590058 -0.9885913065673219 0.0
1.2130844644987477 3.3076255027068551 0.0
1.7533116751596529 0.7016224914153700 0.0
1.3020626003605258 0.5305185395542590 0.0
1.5812128987673983 0.1072832856053090 0.0
3.3751742064818293 2.0126930305355115 0.0
3.2396332437355269 2.4595229403986316 0.0
3.0196300390368909 1.8737962766933161 0.0
1.1560259653977596 1.6557964856772565 0.0
3.2100315156935761 2.2433649196460128 0.0
3.5814915608324664 1.9518422961143689 0.0
3.5689845087594771 1.6637344025232426 0.0
3.3746221865622195 1.3537171114881072 0.0
1.6354769195009711 2.3178388111076100 0.0
3.4396040946727000 0.1330020639135630 0.0
1.6194873950530753 0.7407123347753130 0.0
3.5867430454852327 1.2409674156630111 0.0
3.4974110915430767 1.1261007151703284 0.0
2.7469232015795360 2.1319502991849286 0.0
3.2440935197839442 1.4927170240207597 0.0
3.0675384509850003 2.1529468685734203 0.0
3.3870823900821572 2.1578835993507810 0.0
3.6730565682431942 1.6413918111384931 0.0
3.4874760659420345 1.8262291188727493 0.0
1.7128388963315515 0.2545103864442531 0.0
3.1139585604403965 2.0894436323369914 0.0
3.3742854412143828 1.1056383148749565 0.0
3.0084795400478979 2.0550199029545095 0.0
3.3190541952659234 0.0964334984647353 0.0
3.3552751995233265 -0.2039519420114823 0.0
1.0121885266201831 1.1098476517977458 0.0
2.3503129876636288 -1.0404545070369522 0.0
3.3118262500494988 2.1684905951239077 0.0