# vtk DataFile Version 3.0
LucasCarvalhoTCC Results
ASCII

DATASET POLYDATA
FIELD FieldData 1
TIME 1 1 double
2.5

POINTS 531 float
0.02430399999999999 0.16425 0.0
0.5913384 0.481878 0.0
1.30475 0.591832 0.0
0.774126 0.951272 0.0
0.04779564148251592 0.1966194329439859 0.0
0.0726092153537953 0.2279866320496896 0.0
0.09876577335895967 0.2582426022760065 0.0
0.1262817198684718 0.2872673048853742 0.0
0.1551671626852806 0.3149288071400502 0.0
0.1854238368919928 0.3410826624766006 0.0
0.2170424591499632 0.3655716640299072 0.0
0.2499995164635996 0.3882263409476824 0.0
0.2842534387828506 0.4088665906889567 0.0
0.3197403359862048 0.4273050841371062 0.0
0.3563695945475563 0.4433531534921038 0.0
0.3940201673622058 0.4568300511916809 0.0
0.4325386107291805 0.4675762214989666 0.0
0.4717406913237268 0.4754709112408955 0.0
0.5114182513144845 0.480453442081874 0.0
0.5513531678859215 0.4825464217651069 0.0
0.6182637923774223 0.5096055604109244 0.0
0.647389101376845 0.5350126187545199 0.0
0.6784752958296183 0.5579802184492302 0.0
0.7112421079139344 0.5784810076698811 0.0
0.7454110434104482 0.5965507527581431 0.0
0.7807301979183381 0.6122562812860965 0.0
0.8169827939052532 0.6256694297140926 0.0
0.853985522124928 0.6368498290413532 0.0
0.8915818964261243 0.6458353363890481 0.0
0.9296339776508085 0.6526379336565091 0.0
0.9680139759519513 0.6572432424840469 0.0
1.006596418266983 0.659612648128084 0.0
1.045251165872634 0.6596877658251245 0.0
1.083837680945672 0.657397570658483 0.0
1.122201320191055 0.6526688455666412 0.0
1.160173053543044 0.6454405726452737 0.0
1.197574286953346 0.6356824063786186 0.0
1.23422961949795 0.6234159704281613 0.0
1.26998758503999 0.6087366500005643 0.0
1.285086682927543 0.6256533177085738 0.0
1.263669745906668 0.6583917156018083 0.0
1.240480125919214 0.6898988493917133 0.0
1.215532715641304 0.7200329197235763 0.0
1.188869833862339 0.7486599839005789 0.0
1.160556835593143 0.7756559317113654 0.0
1.130680194163798 0.8009104211039757 0.0
1.099347083827048 0.8243335727704395 0.0
1.066684425336412 0.8458643604021228 0.0
1.03283497048792 0.8654772531176074 0.0
0.9979492572630678 0.8831824104874066 0.0
0.9621749986495024 0.8990166556695112 0.0
0.9256475378616493 0.9130272060048579 0.0
0.8884846540507749 0.9252538945090274 0.0
0.8507866567183312 0.935715378288671 0.0
0.8126405010322847 0.9444016349017643 0.0
0.7365055179612304 0.9396161853607135 0.0
0.699310855231089 0.9266666891603924 0.0
0.6626179171945521 0.9123577070090924 0.0
0.6264901449910028 0.8966765244755546 0.0
0.5909789825447118 0.8796450886595113 0.0
0.556124897941028 0.8613059841617771 0.0
0.5219601957009091 0.8417124664434518 0.0
0.4885110616878257 0.8209207172498462 0.0
0.4558007060429968 0.7989848675704875 0.0
0.4238520247653796 0.775953675763176 0.0
0.3926900138417566 0.7518687036338616 0.0
0.3623437622133722 0.7267636709390595 0.0
0.3328479550295906 0.7006647540504483 0.0
0.3042438201183181 0.6735915983461908 0.0
0.2765795358619001 0.6455588748284606 0.0
0.2499101143933102 0.6165781952942546 0.0
0.2242967982692083 0.5866601984136335 0.0
0.1998060807431611 0.5558166834807132 0.0
0.1765083808984156 0.5240625786010467 0.0
0.154476512720734 0.491417660368959 0.0
0.133784033184808 0.457907916333494 0.0
0.114503564227142 0.4235664945146766 0.0
0.09670517293008124 0.3884342245925089 0.0
0.0804548910754031 0.3525597611689231 0.0
0.06581337946329963 0.3159993090744527 0.0
0.05283482490365372 0.2788161107032479 0.0
0.0415660226296666 0.2410796291505872 0.0
0.03204569406625649 0.2028646095712164 0.0
0.5272009874003867 0.6419624505772817 0.0
0.7421848286576707 0.7716726266421574 0.0
0.8789503364783713 0.7829234141383637 0.0
0.6149390992905563 0.7449438030688011 0.0
0.4064556042659638 0.5942834991165423 0.0
0.9875021850865396 0.7666507358101158 0.0
0.3188065960661005 0.539594034984892 0.0
0.61365100263957 0.6399487878797632 0.0
0.8049090660915541 0.8464379870891131 0.0
0.7099820328572021 0.6828840522539854 0.0
0.5239467234991928 0.7406922291088611 0.0
0.8154056325591208 0.7211774015928547 0.0
0.6676178829014909 0.8152713180209475 0.0
0.4416080359619968 0.674360953773491 0.0
0.489443615375965 0.5654986742123573 0.0
1.076665773779852 0.7387182918829318 0.0
0.250390543112057 0.4877450112830265 0.0
0.5736819937919005 0.5790366884881447 0.0
0.7263706755366466 0.8615301097563091 0.0
0.940143307772686 0.8233944909985552 0.0
0.927065543677544 0.7236459161626674 0.0
0.8744389806957806 0.8609114380468947 0.0
0.336888362650554 0.6081958070931937 0.0
0.2030757334857187 0.4383942902513459 0.0
0.3861483329720647 0.5255533415902591 0.0
0.5621001921466506 0.7923778419149285 0.0
0.6822897332295245 0.7428043323059399 0.0
0.5764061681675353 0.6881266532454204 0.0
1.129195449682892 0.7163224153578123 0.0
0.8157794419559141 0.7831214907157077 0.0
0.3806644703311284 0.6554275822782399 0.0
0.7695737871052837 0.669593045341503 0.0
0.4699375460410929 0.6217118815516158 0.0
0.6830867370872363 0.630350317562806 0.0
1.040416897214502 0.7929392348941093 0.0
0.4604428393605979 0.7321209818568342 0.0
0.8729552856459739 0.7015083313474691 0.0
1.017010765275644 0.7166925631396708 0.0
0.6458785458483771 0.6946878992565794 0.0
0.7733575582969163 0.8941098392103913 0.0
0.4457537579383052 0.5273353624588528 0.0
0.163830623786951 0.3903175742448083 0.0
0.6095823984734953 0.8256600013628639 0.0
0.2618074352614998 0.5435604438425528 0.0
0.6287880420949764 0.5875838132975476 0.0
0.3100402147222924 0.4835410260423071 0.0
0.5422177893302824 0.5343158927797464 0.0
0.9964262112680041 0.8213447667248638 0.0
0.4971609598823845 0.6906859160718212 0.0
0.5740517260168769 0.633982031239429 0.0
0.7423299505107201 0.7218768583704394 0.0
0.767147744476665 0.819658485932403 0.0
0.9427329070375209 0.7774595780066723 0.0
0.8375285793481674 0.8869398470561132 0.0
0.2879426409425497 0.5872676364411625 0.0
0.6797562629663748 0.8647676397847667 0.0
1.171674168522591 0.6949964056806914 0.0
0.5261010885606964 0.6055079299963303 0.0
0.7081534744446967 0.8078672678314597 0.0
0.9681672688626206 0.705385299758921 0.0
0.7364069054947873 0.6432919177737106 0.0
0.363826821075015 0.5678764295233764 0.0
0.826170216989844 0.6605791783255148 0.0
0.1284439337099834 0.3602715082199688 0.0
0.518140828090112 0.783905985497134 0.0
0.8452908336054504 0.8167586152211004 0.0
0.2015204468558833 0.492088055688788 0.0
0.4005883523205732 0.7121294304856254 0.0
0.3551392316798573 0.4864133323669936 0.0
0.2501727034998737 0.4443035857235296 0.0
0.857938396055507 0.7390317828783199 0.0
0.9245301815433076 0.8668102132501951 0.0
0.5702050292970205 0.7323438487067678 0.0
1.111607633075016 0.759318252473435 0.0
0.6317193755596126 0.7853891653733797 0.0
0.7921381265818805 0.7497379312370454 0.0
1.088942426366261 0.7015435214091311 0.0
0.5818207607488639 0.5352340257544296 0.0
0.4203532416309484 0.6369649631143086 0.0
0.4854818714173937 0.5131439318707094 0.0
0.4475429831528036 0.5690430472086269 0.0
0.8968753306595262 0.8225547516037004 0.0
0.6339557898063448 0.8543470494763272 0.0
0.3416564411796998 0.6516449771136894 0.0
1.082970576264455 0.7856036465430698 0.0
0.2255204648032354 0.5229464838393291 0.0
0.7335043541589261 0.9012744999286941 0.0
0.9097052989734319 0.6921177492721042 0.0
0.5363428275528405 0.6992389299864537 0.0
0.9657777897300287 0.8588269742066746 0.0
1.025947476617909 0.7556651119714124 0.0
0.1090829970454354 0.3226173037985549 0.0
0.4836644525169279 0.7663103281018557 0.0
0.6910856326166581 0.777867529208468 0.0
0.6694391877434097 0.5946719355048008 0.0
0.2954883530575775 0.4501042133334518 0.0
0.6746032498128595 0.6643957640016517 0.0
1.054636636429828 0.6974583960183274 0.0
0.8939255235163368 0.7470597914537064 0.0
0.3749741568555516 0.6190655430398917 0.0
1.204101441114554 0.6801433534918062 0.0
0.6130053345415899 0.6785345531932346 0.0
0.7679719108452487 0.8562682874000032 0.0
0.9710820219997449 0.8008372590855476 0.0
0.1608022352294362 0.4242591696906621 0.0
0.2865399820604418 0.5141369963640697 0.0
0.1962258775846918 0.4008383427744516 0.0
0.6210920174972845 0.5516143721732873 0.0
0.4843009180093644 0.6583977883024127 0.0
0.5695029195102991 0.8267073580550881 0.0
0.9562891163300477 0.7436031251145003 0.0
0.4174190173896447 0.5044019081507806 0.0
0.410860431802698 0.5535781448116232 0.0
0.8709320861791604 0.9002602580953145 0.0
0.427354757192076 0.7399041791280969 0.0
0.7107884943357746 0.7172753954970394 0.0
1.030382288537246 0.8267335242583146 0.0
0.7737440530215844 0.7115751739064536 0.0
0.8042035044852396 0.9123190309183211 0.0
0.0480920891272324 0.2181807374272496 0.0
0.3695079235280397 0.6886893012630373 0.0
0.773516204411121 0.7830673827025234 0.0
0.302776671534508 0.6210168062901616 0.0
0.7150573728414059 0.6149413270404035 0.0
0.5863276441271683 0.769748656022605 0.0
1.143752049005473 0.6780480059671409 0.0
0.6477132714923303 0.7318578097016951 0.0
0.8380052680878572 0.8531154611905379 0.0
0.5966224054445893 0.6051703156405629 0.0
0.3207240819522855 0.5772784374275386 0.0
0.3520131451607586 0.5263918604440553 0.0
0.8573528491808811 0.6709738722470224 0.0
0.1797236573643203 0.460867988842514 0.0
0.5540828191547277 0.6661566975721369 0.0
1.158039843450239 0.7357536542887966 0.0
0.08638006908591334 0.286237566592474 0.0
0.790861820497242 0.6466611559014377 0.0
0.5362079962218838 0.8121454698907893 0.0
0.9405172130232713 0.6862060282668497 0.0
0.6039359324506977 0.711463595189489 0.0
0.4440093493753478 0.6096873538428137 0.0
0.5500746279087338 0.7620941994763282 0.0
0.2578504496023611 0.5739900063885278 0.0
0.502526452350101 0.6209820553182169 0.0
0.6799833858912959 0.7033681517905728 0.0
0.7183487148906835 0.7518430858176317 0.0
0.8006701240044786 0.8118713608014352 0.0
0.1304684854221093 0.3934039266496895 0.0
1.00789495394612 0.7937868725857601 0.0
0.696960396255943 0.893370944718147 0.0
0.8258315165019564 0.7538365084989149 0.0
0.8462950259502577 0.775614153529746 0.0
0.4082018839227037 0.6749460331934272 0.0
0.7025889307788081 0.8378536687159448 0.0
0.4666676520109517 0.6984557076050861 0.0
[...]
POINT_DATA 531

VECTORS Velocity float
0.0000000000000000 1.0000000000000000 0.0
0.0000000000000000 1.0000000000000000 0.0
2.6381785559121878 -0.9593107224323694 0.0
1.8131707871835270 1.0277324877150200 0.0
0.0000000000000000 1.0000000000000000 0.0
0.0000000000000000 1.0000000000000000 0.0
0.0000000000000000 1.0000000000000000 0.0
0.0000000000000000 1.0000000000000000 0.0
0.0000000000000000 1.0000000000000000 0.0
0.0000000000000000 1.0000000000000000 0.0
0.0000000000000000 1.0000000000000000 0.0
0.0000000000000000 1.0000000000000000 0.0
0.0000000000000000 1.0000000000000000 0.0
0.0000000000000000 1.0000000000000000 0.0
0.0000000000000000 1.0000000000000000 0.0
0.0000000000000000 1.0000000000000000 0.0
0.0000000000000000 1.0000000000000000 0.0
0.0000000000000000 1.0000000000000000 0.0
0.0000000000000000 1.0000000000000000 0.0
0.0000000000000000 1.0000000000000000 0.0
0.0000000000000000 0.0000000000000000 0.0
0.0000000000000000 0.0000000000000000 0.0
0.0000000000000000 0.0000000000000000 0.0
0.0000000000000000 0.0000000000000000 0.0
0.0000000000000000 0.0000000000000000 0.0
0.0000000000000000 0.0000000000000000 0.0
0.0000000000000000 0.0000000000000000 0.0
0.0000000000000000 0.0000000000000000 0.0
0.0000000000000000 0.0000000000000000 0.0
0.0000000000000000 0.0000000000000000 0.0
0.0000000000000000 0.0000000000000000 0.0
0.0000000000000000 0.0000000000000000 0.0
0.0000000000000000 0.0000000000000000 0.0
0.0000000000000000 0.0000000000000000 0.0
0.0000000000000000 0.0000000000000000 0.0
0.0000000000000000 0.0000000000000000 0.0
0.0000000000000000 0.0000000000000000 0.0
0.0000000000000000 0.0000000000000000 0.0
0.0000000000000000 0.0000000000000000 0.0
2.6783302508417535 -1.7944204557421626 0.0
3.6712601772908662 -2.3044361372573205 0.0
3.7598860880642455 -2.2280382722352652 0.0
3.7561149124846076 -1.9653248953959330 0.0
3.8136425806902170 -1.7246264507579001 0.0
3.8679648662973602 -1.3910443955863923 0.0
3.8866386735012837 -1.1939010477873564 0.0
3.9378899690086935 -0.9437135289916708 0.0
3.8375768281263261 -0.6144637167355553 0.0
3.7909331405265463 -0.3515071228919634 0.0
3.6643995715751583 -0.0812542466535815 0.0
3.4795670761348187 0.1801526452985696 0.0
3.3416001871482703 0.3882379917980662 0.0
3.0686477592603270 0.5943995696508326 0.0
2.5532537635569676 1.0749776828558155 0.0
1.8156067709950690 0.9469027266022906 0.0
0.0000000000000000 0.0000000000000000 0.0
0.0000000000000000 0.0000000000000000 0.0
0.0000000000000000 0.0000000000000000 0.0
0.0000000000000000 0.0000000000000000 0.0
0.0000000000000000 0.0000000000000000 0.0
0.0000000000000000 0.0000000000000000 0.0
0.0000000000000000 0.0000000000000000 0.0
0.0000000000000000 0.0000000000000000 0.0
0.0000000000000000 0.0000000000000000 0.0
0.0000000000000000 0.0000000000000000 0.0
0.0000000000000000 0.0000000000000000 0.0
0.0000000000000000 0.0000000000000000 0.0
0.0000000000000000 0.0000000000000000 0.0
0.0000000000000000 0.0000000000000000 0.0
0.0000000000000000 0.0000000000000000 0.0
0.0000000000000000 0.0000000000000000 0.0
0.0000000000000000 0.0000000000000000 0.0
0.0000000000000000 0.0000000000000000 0.0
0.0000000000000000 0.0000000000000000 0.0
0.0000000000000000 0.0000000000000000 0.0
0.0000000000000000 0.0000000000000000 0.0
0.0000000000000000 0.0000000000000000 0.0
0.0000000000000000 0.0000000000000000 0.0
0.0000000000000000 0.0000000000000000 0.0
0.0000000000000000 0.0000000000000000 0.0
0.0000000000000000 0.0000000000000000 0.0
0.0000000000000000 0.0000000000000000 0.0
0.0000000000000000 0.0000000000000000 0.0
3.8104238382735574 2.5402089527391043 0.0
4.1382108346307422 1.9556931270291498 0.0
3.8882172891192859 1.0850561002826666 0.0
3.7994334636520501 2.1854019677771963 0.0
3.7719913506177498 2.9112166134270323 0.0
3.5829488252272834 0.1441294333126101 0.0
3.9008032819332139 3.4921773797268969 0.0
3.6521717912179046 2.4184676080284566 0.0
3.6398679266251590 1.7609300120520011 0.0
3.5620610940883073 1.7002193910929242 0.0
2.9345447909369375 1.8981124442484190 0.0
3.4850344204402210 1.3232892374455925 0.0
3.3163736042313667 1.6938256095222779 0.0
3.1715953109723638 2.4036364935566779 0.0
3.2616115547871489 2.4399339560259308 0.0
3.1380218178566035 -0.4272027104419153 0.0
3.6051360225335762 3.8576397999805003 0.0
2.5556223622775365 2.1356969867812898 0.0
3.0319899066075662 1.4158479716457937 0.0
3.7761166183151715 0.5346656952126814 0.0
2.6156563291307116 0.3989378536648451 0.0
3.5058788887087053 1.1232720772352323 0.0
2.8133328375224553 2.6695160717350515 0.0
3.4913134841328501 4.5886640440933348 0.0
3.6053136114006681 2.6326396549836280 0.0
2.4154165808824550 1.4216693754443079 0.0
4.1864333417295505 2.2032640194803346 0.0
3.8628348693692702 2.5234580485638829 0.0
2.9168898455948082 -0.7697012473643804 0.0
3.9979767342723425 1.6230973379375992 0.0
2.5453799876742198 2.0965867949040433 0.0
2.6548917596988888 1.0681406257847090 0.0
3.7956274175574278 2.6694154837115103 0.0
2.7469864759800631 1.3858398388547513 0.0
3.7849742884824145 -0.2821494098584789 0.0
2.0882739885839707 1.5253974234743721 0.0
2.4834822779769778 0.6566438805594460 0.0
2.3112140407075188 0.0808227186133478 0.0
4.0055457919221489 2.3790828221639631 0.0
2.6903616702177380 1.7030193270734544 0.0
2.7997562200280228 2.4266605431139370 0.0
2.9349324866718245 4.7380693480284410 0.0
2.5113610942438864 1.3393737286205105 0.0
2.5291902099004093 2.8950595444138858 0.0
2.2352901108626049 1.7075939268161098 0.0
3.2695509750646163 3.5000658230551056 0.0
1.8994234210453782 1.7787814975549110 0.0
3.8140747245259035 0.0270140812733333 0.0
3.4921607885951489 2.3143730242629528 0.0
3.7090103039233679 2.5104428279425961 0.0
3.9405783516486999 1.8512570940333679 0.0
3.9310069697413348 1.9165452408134975 0.0
3.7075568156478225 0.4752778435399322 0.0
3.0265551666674200 1.4832913536823025 0.0
1.6570922503302570 1.6929770901866961 0.0
2.4045959659129261 1.1375128340085021 0.0
2.8927373544995207 -1.0198826099395533 0.0
3.6086671730289055 2.4947670649428599 0.0
3.8568925166352872 1.9283321403029585 0.0
1.6321174146768764 0.1031390056265833 0.0
2.0691247100503030 1.0817119551520502 0.0
3.7202452641751624 3.1781251271690407 0.0
1.2300933100520834 0.4716292196980528 0.0
1.8314092897871954 3.2599449254890862 0.0
1.5816919202176463 0.9275527238812883 0.0
3.8312085888221610 1.4096151104604429 0.0
1.8404850076138464 2.2665785977474404 0.0
1.1454636863274863 0.7777452027463369 0.0
2.1038006163035186 2.3869721359918108 0.0
2.7804005439011799 3.3836827064251325 0.0
3.4976948827047578 1.0745643601985264 0.0
3.5657647189543416 0.6505517963531786 0.0
3.5722537633016009 2.2630195010859042 0.0
3.7467358779539466 -1.0313472853594445 0.0
3.3839128305779629 1.8093197682209696 0.0
3.9815901550590969 1.6346759420890877 0.0
1.7369165872622598 -0.3182644421003736 0.0
1.4810628705934630 1.5380259906690292 0.0
3.4179829223375573 2.6290474213347950 0.0
1.3131979060487176 1.7899055248760924 0.0
3.5634980644634502 2.6860411764185792 0.0
3.7695842346654476 0.9830232149229370 0.0
1.5784729127701547 0.8356296810855881 0.0
1.3900345216176206 1.3411355815784545 0.0
3.8573993719141071 -0.7571411951520328 0.0
1.8256330854216800 1.8489544583284159 0.0
1.5976757729592954 0.8689283578457304 0.0
1.4473805220547191 0.1708288646273089 0.0
3.6627239195626604 2.3771234569744055 0.0
3.7072612202941753 0.2424941401846269 0.0
3.3026888893299913 -0.2072596148989581 0.0
1.5934206469251457 3.1018920297687558 0.0
1.2795438826003303 1.0835963295874398 0.0
4.0350251095520102 2.0518053399715717 0.0
1.3567220507427316 0.8294901535558888 0.0
1.5222729859376631 2.7794042229122908 0.0
3.6096421838407129 2.0572247693704466 0.0
1.4481133728898283 -0.2528970964053216 0.0
3.5091143593778251 0.7985008279174607 0.0
3.1628585501980222 2.5433951323562103 0.0
2.6906125491700443 -1.3979721412924677 0.0
3.9082382883313018 2.5089184500499879 0.0
3.4444950395682796 1.8691954866870633 0.0
3.7820758471877474 0.2654243707228255 0.0
2.0001039954483790 3.0557151818485977 0.0
3.6182856791834599 3.6841476327279850 0.0
2.4433997996556580 4.0337464131459893 0.0
0.8872532372136478 0.8454288812454931 0.0
3.6645821760971562 2.5394135679494396 0.0
1.1610714791449306 0.6132958625967854 0.0
3.1086683050082460 0.2925932415245980 0.0
2.1068176206844820 2.1934849002021353 0.0
3.5670867362954479 2.8121355839133755 0.0
2.9904222298567933 1.0100957585800450 0.0
0.8876167286188797 0.6478309741020254 0.0
4.0552857055733904 1.9373838308589972 0.0
3.8788977843825911 -0.2771685268975679 0.0
3.6072712129574640 1.5482789713868375 0.0
2.3105978666406339 1.5466993695188029 0.0
0.7641785869792254 3.4574472292721175 0.0
1.0217098148581885 0.8910010061198744 0.0
4.0830580652558064 1.8134789601552082 0.0
1.3165246509789290 1.0579544714041726 0.0
1.2546099178039050 0.4863949832891082 0.0
3.2347001488947380 1.9153790370491084 0.0
1.4506236496755802 -0.2899826960859804 0.0
4.1079266179682650 2.3379066166570879 0.0
3.5947091662443746 1.5273790192622430 0.0
3.1388623309751456 2.2329255357373188 0.0
2.9067733285265800 3.0263214498741422 0.0
3.9031540918795593 3.2607848189281619 0.0
1.0828917717193054 0.3271341592063375 0.0
1.7257723483154450 2.4102193560069063 0.0
3.8713034257107934 2.4994554034539456 0.0
3.6804910927842274 -1.3315234170624248 0.0
1.2131495748531429 3.3076056406788319 0.0
1.2502862862749806 0.5020792563222910 0.0
1.0383340383048838 0.4141840064955768 0.0
1.0476169961732011 0.0596471194045229 0.0
3.9661500167390398 2.3980452018925567 0.0
3.7529307399805631 2.8085142537217620 0.0
2.8725643511244576 1.7145292768957623 0.0
1.0366934927584470 1.4965192860818561 0.0
3.8014561019187676 2.5809827040420479 0.0
4.0250177999989134 2.2461538520180127 0.0
4.1605388442515219 2.0396864618692012 0.0
3.9243530945415053 1.7208083217109127 0.0
1.6336590633890073 2.3200778649717400 0.0
3.7853114723741985 -0.0380440851873651 0.0
1.3108797219159372 0.6446531557474429 0.0
3.8668868721724703 1.4352598960642953 0.0
3.9011661541515275 1.3073477817976735 0.0
2.5985971211620686 1.8355699221329895 0.0
3.1741473314795310 1.5142488123707141 0.0
3.1017684525139635 2.1513862413776392 0.0
3.0690244141568788 1.9621983651203609 0.0
3.3954154334530253 1.6883139577179742 0.0
3.9598591043345093 2.1859245236544287 0.0
1.1984159356454063 0.1738941725547797 0.0
2.8985108720688650 2.1044734189412950 0.0
2.6377988579272174 0.8869866419395182 0.0
2.8219090522928760 2.0553989299511692 0.0
2.6782574519210169 0.0050791545664858 0.0
3.9542959388704602 -0.5527835507678874 0.0
0.9429928280799362 0.9638172722298231 0.0
2.3139659443865974 -1.0753618174527104 0.0
3.8707334186922377 2.5177754856425292 0.0
2.8727644441453699 1.4518709090343145 0.0
3.1015534567359437 1.7338080463917338 0.0
3.4885102516224369 3.9809801478865765 0.0
0.5646382540659989 1.6438202228257264 0.0
3.6753951901757298 2.6634915627942237 0.0
1.5319860757795618 1.8371192931265723 0.0
2.9914130122139957 -0.6365892334750335 0.0
3.7926140315627315 0.7977766599667963 0.0
3.5243666340323552 2.4241934972202417 0.0
0.6852418888238475 0.5471632373566313 0.0
1.1928158309507206 2.2379665766951518 0.0
3.1114456660700638 2.7720333982758367 0.0
1.7176049104649354 2.9231270416133945 0.0
1.0190333440037294 1.8825921376548567 0.0
0.8629658226442000 1.5827959561488711 0.0
1.6639243996403710 3.0814096847234493 0.0
1.4957222964117998 1.1871764452148204 0.0
2.1900651830584015 -1.4152090079450996 0.0
2.1972050497822457 1.6676943923038225 0.0
0.7315108021442567 0.3169920998693809 0.0
0.8003951502726623 0.6093049845517262 0.0
3.8972002931447292 3.4634448648974812 0.0
1.3170542210013516 -0.0702413049368227 0.0
3.1941662147753234 0.8120519361682517 0.0
3.7790033055039833 -0.0220273862400488 0.0
3.7793650482967136 2.3535337973091357 0.0
1.1250735905831935 3.3292140804303818 0.0
2.7914566498565159 0.7122849093023775 0.0
0.6495235103480176 0.3951292374016085 0.0
3.5433817186347505 -0.3436485360963429 0.0
3.6178206680617917 2.6535893369438153 0.0
0.8546709703466463 -0.0076979337472048 0.0
2.7659976014627663 -0.1984417452573883 0.0
2.8106271216357266 1.5183171453047453 0.0
3.6928602773756851 -1.6961940909340096 0.0
0.9171341122777825 0.1152387637065587 0.0
2.5943661481716411 1.6118544391681831 0.0
2.8784894764057776 2.3663386291921653 0.0
2.2867181462415811 1.9310565930947270 0.0
3.7779420917534425 2.5014236895666824 0.0
3.7725549800369413 1.8577479457781050 0.0
2.6628338767005122 1.1086530726642836 0.0
3.6967583874850449 3.7887599720746628 0.0
4.0565976371529642 1.9559900127086500 0.0
0.9960662291991176 0.6204253100035197 0.0
3.1437728333428594 3.2505772790327070 0.0
2.8147741797079098 1.6605932853020795 0.0
4.0939033477907882 2.0523620880532110 0.0
4.0499723598295843 1.8489369628619192 0.0
3.0873090991716206 2.2286810602649387 0.0
3.6523352767892212 2.5079587652285693 0.0
1.2732750788417577 -0.7661223687448406 0.0
3.4854628079514960 0.6551989705675360 0.0
3.7845237680188992 0.2223675498952009 0.0
1.6699256204575743 4.0683817961287581 0.0
2.3241865957630887 1.9288964313983015 0.0
0.7439726721938326 0.6071350088270343 0.0
3.8306327238317941 2.5286250674635418 0.0
4.1298185319010239 1.9645282257841037 0.0
3.8863498233653933 1.1120732317367528 0.0
3.7581001758018484 2.1603998600499605 0.0
3.7832223753476675 2.8874229354696062 0.0
3.5841442834887665 0.1636299281855910 0.0
3.9072912773775772 3.4792526395137831 0.0
3.7017546717962229 2.4488484235705044 0.0
3.5861320700910628 1.7761674859799104 0.0
3.6200500988243873 1.7339431905570375 0.0
2.8822024068975680 1.8567473050214551 0.0
3.5362946491640650 1.3500859348464092 0.0
3.2540408517494197 1.6669946331639702 0.0
3.1392596894783980 2.3606790634446626 0.0
3.3128880203890776 2.4371185339519337 0.0
3.1393304147676169 -0.4231418217674019 0.0
3.6066104177989327 3.8548630466923162 0.0
2.6109260227157161 2.1573068694208635 0.0
2.9718696340110116 1.4019792740501540 0.0
3.7529346088855493 0.5557575180035069 0.0
2.6464546501715103 0.4146527229665748 0.0
3.4649078654102667 1.1398439184072067 0.0
2.8045772750789548 2.6460305477719048 0.0
3.4914527499816272 4.5884391458918161 0.0
3.6288239628854160 2.6279257081787617 0.0
2.3578034422861256 1.3880660917645713 0.0
4.1872346824676443 2.2073532951794852 0.0
3.8557473479554973 2.5102743013277018 0.0
2.9168540225697419 -0.7697455991036176 0.0
3.9920601396934856 1.6492721975559888 0.0
2.5224816631421922 2.0634111061915399 0.0
2.7142730943670128 1.0934957710687687 0.0
3.8109442060365120 2.6458166468032971 0.0
2.8105700397072639 1.4195071536820791 0.0
3.7804024367007347 -0.2724974358794716 0.0
2.0433506717181986 1.4903356857588639 0.0
2.5310700550751553 0.6722035449289997 0.0
2.3204662642958369 0.0888993516592303 0.0
4.0315936328505790 2.3956285079317552 0.0
2.6416946948416760 1.7003053137664195 0.0
2.8396665944187265 2.4274664449912069 0.0
2.9348767839734071 4.7380839790618410 0.0
2.4536262064574719 1.3092324817522796 0.0
2.5287565860030199 2.8892919510158310 0.0
2.2899848761294757 1.7460276147384326 0.0
3.2761035828946889 3.4994734950671669 0.0
1.9490851454297200 1.7869075782556960 0.0
3.7991986136475608 0.0414227379327139 0.0
3.4532817965338651 2.2749610419552835 0.0
3.7492313633310212 2.5195617993677337 0.0
3.9827824623682426 1.8735112671990928 0.0
3.8833568196554600 1.9222707130802996 0.0
3.7032979048785295 0.4977831482007937 0.0
2.9905097160525695 1.4906638266613548 0.0
1.6524011606231450 1.6840160893055331 0.0
2.3479458951190701 1.1148846800718217 0.0
2.8926192016559606 -1.0200884872866143 0.0
3.6503004865510560 2.4974000396133156 0.0
3.8033652439575580 1.9108959659484892 0.0
1.6525866945319065 0.1137389345604837 0.0
2.1219098624516062 1.1075456469010838 0.0
3.7286070802594171 3.1596439977906114 0.0
1.2675986040729237 0.4856648843158993 0.0
1.8313905436316162 3.2599678743931353 0.0
1.5401364767292545 0.9009502545093201 0.0
3.7987309678979035 1.4341944502301522 0.0
1.8404842585144814 2.2658104103419299 0.0
1.1208777909434500 0.7568466820200626 0.0
2.1171944559850395 2.3858104435042038 0.0
2.7816861054850817 3.3831755730042326 0.0
3.5325428299092980 1.1005991220134674 0.0
3.5398158282812040 0.6639681627942741 0.0
3.5305352242730863 2.2286204391443585 0.0
3.7471064277722430 -1.0309516458011729 0.0
3.3236586007886277 1.7793664334856416 0.0
4.0084516438457980 1.6584924245752672 0.0
1.7369535767970914 -0.3174942302525027 0.0
1.5208921092265437 1.5554629524828767 0.0
3.4057837782322435 2.5938568970090166 0.0
1.3464550653739595 1.7932058479940429 0.0
3.5987019471519899 2.6731608612788174 0.0
3.7403035414249275 1.0089142759211629 0.0
1.5343887648181633 0.8136172708664541 0.0
1.3759735802607596 1.3212995243109311 0.0
3.8569920338880270 -0.7537054391190027 0.0
1.8254239237761012 1.8467521329726635 0.0
1.5627887473172659 0.8624200219848311 0.0
1.4773871576359032 0.1802342484538159 0.0
3.6287163103188540 2.3457381432309981 0.0
3.6904510757538014 0.2528644062050114 0.0
3.3054895577068231 -0.1932343309163226 0.0
1.5934158466236115 3.1018918042588863 0.0
1.2429808449241166 1.0526677112448222 0.0
3.9967804142338754 2.0399263133555765 0.0
1.4001867552475482 0.8552672549666749 0.0
1.5248645405250465 2.7798723020158680 0.0
3.6675111186922100 2.0898829323464843 0.0
1.4508360305568322 -0.2498807624461052 0.0
3.5282212554112120 0.8232361272042865 0.0
3.1545531613061404 2.5103522831276281 0.0
2.6905934179203261 -1.3980776312257652 0.0
3.9318484894641546 2.5201166716031098 0.0
3.3842514240709893 1.8670275134121588 0.0
3.7698249103632060 0.2836612189066308 0.0
2.0001348799506875 3.0558098171074097 0.0
3.6222623141720374 3.6784324933187369 0.0
2.4433090043863137 4.0337292111256069 0.0
0.9168976667961192 0.8700184575067428 0.0
3.6517204738813356 2.5061458104005605 0.0
1.1243395314916413 0.5942789491190306 0.0
3.1254318897977886 0.3109153921516215 0.0
2.1328054474275211 2.1947996695956533 0.0
3.5968903997428665 2.8008088657731731 0.0
2.9647532930091134 1.0196303645915801 0.0
0.8628311011694886 0.6280658502290928 0.0
4.0924761514255410 1.9601562093805616 0.0
3.8710899623978685 -0.2701396895562158 0.0
3.6607307443342778 1.5753478093012399 0.0
2.2833389008156408 1.5478259155458849 0.0
0.7641785869792255 3.4574472292721188 0.0
1.0028380575708353 0.8707670098049999 0.0
4.0705929294423422 1.8294750093728902 0.0
1.3094432302384804 1.0469416646920378 0.0
1.2974413837700449 0.5052525271898978 0.0
3.1745282196176321 1.8801763468818860 0.0
1.4502598467540944 -0.2899993819503319 0.0
4.1039141566530111 2.3385967951340678 0.0
3.5434387073187992 1.5430694239186102 0.0
3.1970719217148833 2.2632558555705473 0.0
2.9015618339491298 3.0078524615820883 0.0
3.9204506920190489 3.2541243875072721 0.0
1.1161011283856170 0.3374675160546052 0.0
1.7258929278545545 2.4101639737685763 0.0
3.8767366018339158 2.4889703707507427 0.0
3.6807933666941550 -1.3318222905761599 0.0
1.2131507470350438 3.3076056117174160 0.0
1.2895191165372626 0.5185322225194584 0.0
1.0022437761208762 0.3982828740736410 0.0
1.0716562378713692 0.0649765470848811 0.0
3.9572676782032019 2.3856868538805034 0.0
3.7685932033698148 2.7806610736851560 0.0
2.8154300204072156 1.6768615124394681 0.0
1.0342214787436619 1.4903928710730201 0.0
3.8229975925801924 2.5634628984428467 0.0
4.0583413718706751 2.2674748520578900 0.0
4.1673532685831933 2.0479270336226372 0.0
3.8871129034671972 1.7388347094851562 0.0
1.6336457749994420 2.3201552918733790 0.0
3.7781156549767347 -0.0212627778722762 0.0
1.2766110169633167 0.6315315442479670 0.0
3.8902967861220032 1.4620066341957985 0.0
3.9024304823531075 1.3385334451771203 0.0
2.5685585646159916 1.8009728633259514 0.0
3.1116213310704008 1.4967476036824001 0.0
3.0608751009378397 2.1105738766155948 0.0
3.1330308564372920 2.0006781397574778 0.0
3.4567580964324147 1.7164549759854775 0.0
3.9169270625116464 2.1700311796399032 0.0
1.2114696178507958 0.1789749120192178 0.0
2.9560394446236904 2.1107983715437477 0.0
2.6920036337452511 0.9104730236551407 0.0
2.7729921683644667 2.0168459454578209 0.0
2.6924370172046057 0.0195750954800706 0.0
3.9512055225133347 -0.5489599384971385 0.0
0.9417550725437421 0.9609170487354501 0.0
2.3139482299451029 -1.0753669504936036 0.0
3.8990935823676702 2.5267265810357400 0.0