# vtk DataFile Version 3.0
LucasCarvalhoTCC Results
ASCII

DATASET POLYDATA
FIELD FieldData 1
TIME 1 1 double
6.800000000000001

POINTS 531 float
0.02430399999999999 0.16425 0.0
0.5913384 0.481878 0.0
1.30475 0.591832 0.0
0.774126 0.951272 0.0
0.04779564148251592 0.1966194329439859 0.0
0.0726092153537953 0.2279866320496896 0.0
0.09876577335895967 0.2582426022760065 0.0
0.1262817198684718 0.2872673048853742 0.0
0.1551671626852806 0.3149288071400502 0.0
0.1854238368919928 0.3410826624766006 0.0
0.2170424591499632 0.3655716640299072 0.0
0.2499995164635996 0.3882263409476824 0.0
0.2842534387828506 0.4088665906889567 0.0
0.3197403359862048 0.4273050841371062 0.0
0.3563695945475563 0.4433531534921038 0.0
0.3940201673622058 0.4568300511916809 0.0
0.4325386107291805 0.4675762214989666 0.0
0.4717406913237268 0.4754709112408955 0.0
0.5114182513144845 0.480453442081874 0.0
0.5513531678859215 0.4825464217651069 0.0
0.6182637923774223 0.5096055604109244 0.0
0.647389101376845 0.5350126187545199 0.0
0.6784752958296183 0.5579802184492302 0.0
0.7112421079139344 0.5784810076698811 0.0
0.7454110434104482 0.5965507527581431 0.0
0.7807301979183381 0.6122562812860965 0.0
0.8169827939052532 0.6256694297140926 0.0
0.853985522124928 0.6368498290413532 0.0
0.8915818964261243 0.6458353363890481 0.0
0.9296339776508085 0.6526379336565091 0.0
0.9680139759519513 0.6572432424840469 0.0
1.006596418266983 0.659612648128084 0.0
1.045251165872634 0.6596877658251245 0.0
1.083837680945672 0.657397570658483 0.0
1.122201320191055 0.6526688455666412 0.0
1.160173053543044 0.6454405726452737 0.0
1.197574286953346 0.6356824063786186 0.0
1.23422961949795 0.6234159704281613 0.0
1.26998758503999 0.6087366500005643 0.0
1.285086682927543 0.6256533177085738 0.0
1.263669745906668 0.6583917156018083 0.0
1.240480125919214 0.6898988493917133 0.0
1.215532715641304 0.7200329197235763 0.0
1.188869833862339 0.7486599839005789 0.0
1.160556835593143 0.7756559317113654 0.0
1.130680194163798 0.8009104211039757 0.0
1.099347083827048 0.8243335727704395 0.0
1.066684425336412 0.8458643604021228 0.0
1.03283497048792 0.8654772531176074 0.0
0.9979492572630678 0.8831824104874066 0.0
0.9621749986495024 0.8990166556695112 0.0
0.9256475378616493 0.9130272060048579 0.0
0.8884846540507749 0.9252538945090274 0.0
0.8507866567183312 0.935715378288671 0.0
0.8126405010322847 0.9444016349017643 0.0
0.7365055179612304 0.9396161853607135 0.0
0.699310855231089 0.9266666891603924 0.0
0.6626179171945521 0.9123577070090924 0.0
0.6264901449910028 0.8966765244755546 0.0
0.5909789825447118 0.8796450886595113 0.0
0.556124897941028 0.8613059841617771 0.0
0.5219601957009091 0.8417124664434518 0.0
0.4885110616878257 0.8209207172498462 0.0
0.4558007060429968 0.7989848675704875 0.0
0.4238520247653796 0.775953675763176 0.0
0.3926900138417566 0.7518687036338616 0.0
0.3623437622133722 0.7267636709390595 0.0
0.3328479550295906 0.7006647540504483 0.0
0.3042438201183181 0.6735915983461908 0.0
0.2765795358619001 0.6455588748284606 0.0
0.2499101143933102 0.6165781952942546 0.0
0.2242967982692083 0.5866601984136335 0.0
0.1998060807431611 0.5558166834807132 0.0
0.1765083808984156 0.5240625786010467 0.0
0.154476512720734 0.491417660368959 0.0
0.133784033184808 0.457907916333494 0.0
0.114503564227142 0.4235664945146766 0.0
0.09670517293008124 0.3884342245925089 0.0
0.0804548910754031 0.3525597611689231 0.0
0.06581337946329963 0.3159993090744527 0.0
0.05283482490365372 0.2788161107032479 0.0
0.0415660226296666 0.2410796291505872 0.0
0.03204569406625649 0.2028646095712164 0.0
0.5272009874003867 0.6419624505772817 0.0
0.7421848286576707 0.7716726266421574 0.0
0.8789503364783713 0.7829234141383637 0.0
0.6149390992905563 0.7449438030688011 0.0
0.4064556042659638 0.5942834991165423 0.0
0.9875021850865396 0.7666507358101158 0.0
0.3188065960661005 0.539594034984892 0.0
0.61365100263957 0.6399487878797632 0.0
0.8049090660915541 0.8464379870891131 0.0
0.7099820328572021 0.6828840522539854 0.0
0.5239467234991928 0.7406922291088611 0.0
0.8154056325591208 0.7211774015928547 0.0
0.6676178829014909 0.8152713180209475 0.0
0.4416080359619968 0.674360953773491 0.0
0.489443615375965 0.5654986742123573 0.0
1.076665773779852 0.7387182918829318 0.0
0.250390543112057 0.4877450112830265 0.0
0.5736819937919005 0.5790366884881447 0.0
0.7263706755366466 0.8615301097563091 0.0
0.940143307772686 0.8233944909985552 0.0
0.927065543677544 0.7236459161626674 0.0
0.8744389806957806 0.8609114380468947 0.0
0.336888362650554 0.6081958070931937 0.0
0.2030757334857187 0.4383942902513459 0.0
0.3861483329720647 0.5255533415902591 0.0
0.5621001921466506 0.7923778419149285 0.0
0.6822897332295245 0.7428043323059399 0.0
0.5764061681675353 0.6881266532454204 0.0
1.129195449682892 0.7163224153578123 0.0
0.8157794419559141 0.7831214907157077 0.0
0.3806644703311284 0.6554275822782399 0.0
0.7695737871052837 0.669593045341503 0.0
0.4699375460410929 0.6217118815516158 0.0
0.6830867370872363 0.630350317562806 0.0
1.040416897214502 0.7929392348941093 0.0
0.4604428393605979 0.7321209818568342 0.0
0.8729552856459739 0.7015083313474691 0.0
1.017010765275644 0.7166925631396708 0.0
0.6458785458483771 0.6946878992565794 0.0
0.7733575582969163 0.8941098392103913 0.0
0.4457537579383052 0.5273353624588528 0.0
0.163830623786951 0.3903175742448083 0.0
0.6095823984734953 0.8256600013628639 0.0
0.2618074352614998 0.5435604438425528 0.0
0.6287880420949764 0.5875838132975476 0.0
0.3100402147222924 0.4835410260423071 0.0
0.5422177893302824 0.5343158927797464 0.0
0.9964262112680041 0.8213447667248638 0.0
0.4971609598823845 0.6906859160718212 0.0
0.5740517260168769 0.633982031239429 0.0
0.7423299505107201 0.7218768583704394 0.0
0.767147744476665 0.819658485932403 0.0
0.9427329070375209 0.7774595780066723 0.0
0.8375285793481674 0.8869398470561132 0.0
0.2879426409425497 0.5872676364411625 0.0
0.6797562629663748 0.8647676397847667 0.0
1.171674168522591 0.6949964056806914 0.0
0.5261010885606964 0.6055079299963303 0.0
0.7081534744446967 0.8078672678314597 0.0
0.9681672688626206 0.705385299758921 0.0
0.7364069054947873 0.6432919177737106 0.0
0.363826821075015 0.5678764295233764 0.0
0.826170216989844 0.6605791783255148 0.0
0.1284439337099834 0.3602715082199688 0.0
0.518140828090112 0.783905985497134 0.0
0.8452908336054504 0.8167586152211004 0.0
0.2015204468558833 0.492088055688788 0.0
0.4005883523205732 0.7121294304856254 0.0
0.3551392316798573 0.4864133323669936 0.0
0.2501727034998737 0.4443035857235296 0.0
0.857938396055507 0.7390317828783199 0.0
0.9245301815433076 0.8668102132501951 0.0
0.5702050292970205 0.7323438487067678 0.0
1.111607633075016 0.759318252473435 0.0
0.6317193755596126 0.7853891653733797 0.0
0.7921381265818805 0.7497379312370454 0.0
1.088942426366261 0.7015435214091311 0.0
0.5818207607488639 0.5352340257544296 0.0
0.4203532416309484 0.6369649631143086 0.0
0.4854818714173937 0.5131439318707094 0.0
0.4475429831528036 0.5690430472086269 0.0
0.8968753306595262 0.8225547516037004 0.0
0.6339557898063448 0.8543470494763272 0.0
0.3416564411796998 0.6516449771136894 0.0
1.082970576264455 0.7856036465430698 0.0
0.2255204648032354 0.5229464838393291 0.0
0.7335043541589261 0.9012744999286941 0.0
0.9097052989734319 0.6921177492721042 0.0
0.5363428275528405 0.6992389299864537 0.0
0.9657777897300287 0.8588269742066746 0.0
1.025947476617909 0.7556651119714124 0.0
0.1090829970454354 0.3226173037985549 0.0
0.4836644525169279 0.7663103281018557 0.0
0.6910856326166581 0.777867529208468 0.0
0.6694391877434097 0.5946719355048008 0.0
0.2954883530575775 0.4501042133334518 0.0
0.6746032498128595 0.6643957640016517 0.0
1.054636636429828 0.6974583960183274 0.0
0.8939255235163368 0.7470597914537064 0.0
0.3749741568555516 0.6190655430398917 0.0
1.204101441114554 0.6801433534918062 0.0
0.6130053345415899 0.6785345531932346 0.0
0.7679719108452487 0.8562682874000032 0.0
0.9710820219997449 0.8008372590855476 0.0
0.1608022352294362 0.4242591696906621 0.0
0.2865399820604418 0.5141369963640697 0.0
0.1962258775846918 0.4008383427744516 0.0
0.6210920174972845 0.5516143721732873 0.0
0.4843009180093644 0.6583977883024127 0.0
0.5695029195102991 0.8267073580550881 0.0
0.9562891163300477 0.7436031251145003 0.0
0.4174190173896447 0.5044019081507806 0.0
0.410860431802698 0.5535781448116232 0.0
0.8709320861791604 0.9002602580953145 0.0
0.427354757192076 0.7399041791280969 0.0
0.7107884943357746 0.7172753954970394 0.0
1.030382288537246 0.8267335242583146 0.0
0.7737440530215844 0.7115751739064536 0.0
0.8042035044852396 0.9123190309183211 0.0
0.0480920891272324 0.2181807374272496 0.0
0.3695079235280397 0.6886893012630373 0.0
0.773516204411121 0.7830673827025234 0.0
0.302776671534508 0.6210168062901616 0.0
0.7150573728414059 0.6149413270404035 0.0
0.5863276441271683 0.769748656022605 0.0
1.143752049005473 0.6780480059671409 0.0
0.6477132714923303 0.7318578097016951 0.0
0.8380052680878572 0.8531154611905379 0.0
0.5966224054445893 0.6051703156405629 0.0
0.3207240819522855 0.5772784374275386 0.0
0.3520131451607586 0.5263918604440553 0.0
0.8573528491808811 0.6709738722470224 0.0
0.1797236573643203 0.460867988842514 0.0
0.5540828191547277 0.6661566975721369 0.0
1.158039843450239 0.7357536542887966 0.0
0.08638006908591334 0.286237566592474 0.0
0.790861820497242 0.6466611559014377 0.0
0.5362079962218838 0.8121454698907893 0.0
0.9405172130232713 0.6862060282668497 0.0
0.6039359324506977 0.711463595189489 0.0
0.4440093493753478 0.6096873538428137 0.0
0.5500746279087338 0.7620941994763282 0.0
0.2578504496023611 0.5739900063885278 0.0
0.502526452350101 0.6209820553182169 0.0
0.6799833858912959 0.7033681517905728 0.0
0.7183487148906835 0.7518430858176317 0.0
0.8006701240044786 0.8118713608014352 0.0
0.1304684854221093 0.3934039266496895 0.0
1.00789495394612 0.7937868725857601 0.0
0.696960396255943 0.893370944718147 0.0
0.8258315165019564 0.7538365084989149 0.0
0.8462950259502577 0.775614153529746 0.0
0.4082018839227037 0.6749460331934272 0.0
0.7025889307788081 0.8378536687159448 0.0
0.4666676520109517 0.6984557076050861 0.0
[...]
POINT_DATA 531

VECTORS Velocity float
0.0000000000000000 1.0000000000000000 0.0
0.0000000000000000 1.0000000000000000 0.0
2.6381946550963633 -0.9593267065220062 0.0
1.7912776027160251 1.0226189172539684 0.0
0.0000000000000000 1.0000000000000000 0.0
0.0000000000000000 1.0000000000000000 0.0
0.0000000000000000 1.0000000000000000 0.0
0.0000000000000000 1.0000000000000000 0.0
0.0000000000000000 1.0000000000000000 0.0
0.0000000000000000 1.0000000000000000 0.0
0.0000000000000000 1.0000000000000000 0.0
0.0000000000000000 1.0000000000000000 0.0
0.0000000000000000 1.0000000000000000 0.0
0.0000000000000000 1.0000000000000000 0.0
0.0000000000000000 1.0000000000000000 0.0
0.0000000000000000 1.0000000000000000 0.0
0.0000000000000000 1.0000000000000000 0.0
0.0000000000000000 1.0000000000000000 0.0
0.0000000000000000 1.0000000000000000 0.0
0.0000000000000000 1.0000000000000000 0.0
0.0000000000000000 0.0000000000000000 0.0
0.0000000000000000 0.0000000000000000 0.0
0.0000000000000000 0.0000000000000000 0.0
0.0000000000000000 0.0000000000000000 0.0
0.0000000000000000 0.0000000000000000 0.0
0.0000000000000000 0.0000000000000000 0.0
0.0000000000000000 0.0000000000000000 0.0
0.0000000000000000 0.0000000000000000 0.0
0.0000000000000000 0.0000000000000000 0.0
0.0000000000000000 0.0000000000000000 0.0
0.0000000000000000 0.0000000000000000 0.0
0.0000000000000000 0.0000000000000000 0.0
0.0000000000000000 0.0000000000000000 0.0
0.0000000000000000 0.0000000000000000 0.0
0.0000000000000000 0.0000000000000000 0.0
0.0000000000000000 0.0000000000000000 0.0
0.0000000000000000 0.0000000000000000 0.0
0.0000000000000000 0.0000000000000000 0.0
0.0000000000000000 0.0000000000000000 0.0
2.6783027985149954 -1.7943078616706718 0.0
3.6706655718224934 -2.3036144709801460 0.0
3.7614659387136640 -2.2270494227258149 0.0
3.7624933702807972 -1.9756776380780803 0.0
3.8565893009054144 -1.7641766375869086 0.0
3.9671249705461689 -1.4694319765279724 0.0
4.0346754990360303 -1.3235644008736298 0.0
4.1753014961940362 -1.1056904665137712 0.0
4.1826525916047714 -0.8222273565183069 0.0
4.1781786681692745 -0.5618568596713018 0.0
4.0544967746675056 -0.2676450894498942 0.0
3.8356771461598633 0.0340278759786046 0.0
3.6410079569307681 0.2689832928373398 0.0
3.2666746853938182 0.5252219879030612 0.0
2.6242864348164305 1.0866261718996650 0.0
1.7642978650209993 0.9331963625514428 0.0
0.0000000000000000 0.0000000000000000 0.0
0.0000000000000000 0.0000000000000000 0.0
0.0000000000000000 0.0000000000000000 0.0
0.0000000000000000 0.0000000000000000 0.0
0.0000000000000000 0.0000000000000000 0.0
0.0000000000000000 0.0000000000000000 0.0
0.0000000000000000 0.0000000000000000 0.0
0.0000000000000000 0.0000000000000000 0.0
0.0000000000000000 0.0000000000000000 0.0
0.0000000000000000 0.0000000000000000 0.0
0.0000000000000000 0.0000000000000000 0.0
0.0000000000000000 0.0000000000000000 0.0
0.0000000000000000 0.0000000000000000 0.0
0.0000000000000000 0.0000000000000000 0.0
0.0000000000000000 0.0000000000000000 0.0
0.0000000000000000 0.0000000000000000 0.0
0.0000000000000000 0.0000000000000000 0.0
0.0000000000000000 0.0000000000000000 0.0
0.0000000000000000 0.0000000000000000 0.0
0.0000000000000000 0.0000000000000000 0.0
0.0000000000000000 0.0000000000000000 0.0
0.0000000000000000 0.0000000000000000 0.0
0.0000000000000000 0.0000000000000000 0.0
0.0000000000000000 0.0000000000000000 0.0
0.0000000000000000 0.0000000000000000 0.0
0.0000000000000000 0.0000000000000000 0.0
0.0000000000000000 0.0000000000000000 0.0
0.0000000000000000 0.0000000000000000 0.0
4.0078081697567409 2.6020702169232051 0.0
4.2968781292374727 2.1794481820650629 0.0
3.9024909377026913 1.1930830818904166 0.0
3.8306349358032192 2.2043547235381764 0.0
3.8212284446512821 2.9197874052446111 0.0
3.4145723608519409 0.0632926688564251 0.0
3.9089484648817412 3.4758956689602818 0.0
3.7892655464440086 2.4475771155671486 0.0
3.7645780744552448 1.9824516667529171 0.0
3.5806741519372083 1.7472880981002297 0.0
2.8333002755999930 1.7903693536585601 0.0
3.3336342115863067 1.3895893555015830 0.0
3.2085844084129320 1.6706917562430774 0.0
3.1601239059052131 2.3408742617824885 0.0
3.2700899212525751 2.5131189516667503 0.0
3.0134346097713944 -0.5062948888886019 0.0
3.6099431719397095 3.8487436766344874 0.0
2.5047069897679002 2.1144655170855007 0.0
2.9081927666426934 1.4127367497167906 0.0
3.9404931648844079 0.5345623987869711 0.0
2.2960883739041926 0.3621564831907352 0.0
3.7080380095480523 1.2383161195078729 0.0
2.7984528413985461 2.6296011164389816 0.0
3.4916550741417360 4.5880316926862799 0.0
3.6329018177602137 2.6432907448060394 0.0
2.2443868141511905 1.3192984620038957 0.0
4.3410165188996297 2.3638564290213755 0.0
4.0272064175929980 2.5805808292178125 0.0
2.8485137013848809 -0.7947646721136430 0.0
4.1179964577246331 1.8356206595590001 0.0
2.5148410303587347 2.0310262326214592 0.0
2.5331471816552953 1.0731243565233279 0.0
3.9376269526427516 2.7322468669515136 0.0
2.7152257493204934 1.3467509887807838 0.0
3.8244901730176228 -0.4458777802786744 0.0
1.9682144516283424 1.4308148436343002 0.0
2.2033785033896489 0.6100325357777288 0.0
2.0691130265951303 0.0347283503307664 0.0
4.1811262633549182 2.4837048668902346 0.0
2.6153178320837918 1.7214016075889074 0.0
2.8026999405137749 2.4562656487210375 0.0
2.9347185106713400 4.7381463242366557 0.0
2.3501998758428844 1.2545581722262420 0.0
2.5249330118224962 2.8795178834302875 0.0
2.1727847849723720 1.6408005862486299 0.0
3.2866138889102241 3.5017853995642638 0.0
1.8113904564290724 1.7688452815545677 0.0
4.0017253761783111 -0.1102879800714460 0.0
3.5041904169575981 2.2620342079026594 0.0
3.8944373121645692 2.5710263697787021 0.0
3.9931983952954497 2.0202151522108296 0.0
4.0596440481580842 2.1309584966919433 0.0
3.6166385196306270 0.4472689514822636 0.0
3.1372007442335375 1.6046936010388015 0.0
1.6449651232319069 1.6764707456901999 0.0
2.2390527451903997 1.0692235648474973 0.0
2.8644914084589379 -1.0493757883657144 0.0
3.7337065363588327 2.5620995351030302 0.0
3.8823143873375967 1.9997907145000162 0.0
1.3954598560313098 0.0703374109165898 0.0
2.0106376051719286 1.0971377184233311 0.0
3.7359135500856415 3.1672023872045401 0.0
1.1008378220604034 0.4417591377110843 0.0
1.8313765647875917 3.2599909342209354 0.0
1.4694779194006855 0.8494089147169741 0.0
4.0012335912410837 1.5969728845539197 0.0
1.8405792981596569 2.2640146362513240 0.0
1.0919190161644308 0.7251789441993033 0.0
2.1239048469437001 2.3894458716279705 0.0
2.7846145462163148 3.3820383395933109 0.0
3.3077183456675736 1.1030052037549418 0.0
3.8549169428761414 0.6479373687034241 0.0
3.5793192985240943 2.2229346449651390 0.0
3.7616419196424378 -1.1329431101376082 0.0
3.2826118826515920 1.7714254791338351 0.0
4.0196457119509974 1.8182667362402134 0.0
1.6355506560475317 -0.3352968667314458 0.0
1.4062993254975802 1.5075605985029925 0.0
3.4478699016272061 2.5910174225817935 0.0
1.2839979731585600 1.8026571233212452 0.0
3.6045953261752399 2.7489781158743112 0.0
3.9464865741680955 1.0932412897600985 0.0
1.4593603532837764 0.7739120475124833 0.0
1.3688569369555557 1.3051272450012013 0.0
3.9177407939292710 -0.9431729088592372 0.0
1.8248677137783891 1.8424640371196190 0.0
1.5113829082973149 0.8510112225929640 0.0
1.2300515539413497 0.1571878581713256 0.0
3.7169843559549562 2.3534981918022271 0.0
4.0513719978428968 0.1389002569420024 0.0
3.1272359509772643 -0.3239773800274465 0.0
1.5934210536773645 3.1018863988383196 0.0
1.1861285131565320 1.0045535338686913 0.0
4.1072354360627932 2.1635940966517611 0.0
1.3167970893641585 0.7945954767245531 0.0
1.5297419668713812 2.7802227086831617 0.0
3.6803831565252274 2.1012057237449993 0.0
1.3198681973654722 -0.2708671194739062 0.0
3.2980100810637656 0.8007727818733360 0.0
3.1583150444122334 2.4937727969391248 0.0
2.6857266768068007 -1.4078938376960404 0.0
4.1035280941696373 2.6148653620279934 0.0
3.4415822410581982 1.9804536089125062 0.0
3.8150397144100046 0.2058563392683031 0.0
2.0000843533683388 3.0560398645395979 0.0
3.6271520261549584 3.6727685462530602 0.0
2.4430276193390741 4.0338088385066833 0.0
0.8445453202739533 0.7999306443494335 0.0
3.7685306130339757 2.5469093782308057 0.0
1.0584659748032743 0.5595888242521606 0.0
2.8237228560806793 0.2430587635083313 0.0
2.1220583668432953 2.2105980753643708 0.0
3.5975479349496293 2.8411026451957690 0.0
3.1465704254435729 1.0501554887762157 0.0
0.8258050649277908 0.5926580863724865 0.0
4.1569369086157755 2.0702101475799868 0.0
4.1361636934978945 -0.4757866737505162 0.0
3.5468612277352745 1.6528967384026627 0.0
2.3011745248236544 1.5867000712930832 0.0
0.7641786049584395 3.4574472034823054 0.0
0.9860159251912637 0.8469275376564945 0.0
4.2486429230404887 2.0535060672722842 0.0
1.3045608196820415 1.0399903313192489 0.0
1.2229708020507757 0.4765807733463517 0.0
3.1173626078617822 1.8445487509547083 0.0
1.4050351237055041 -0.2956129685812676 0.0
4.2694587304258445 2.4569896881051378 0.0
3.7558956454285011 1.7000856513081519 0.0
3.1711402966984790 2.2117685130499956 0.0
2.8935050247769607 2.9983508591867816 0.0
3.9322869830253726 3.2622755111962687 0.0
0.9391552714809385 0.2975980363890846 0.0
1.7262048014137288 2.4100904832701255 0.0
4.0744910452117349 2.5457494980905175 0.0
3.6904989980400131 -1.4063850098690625 0.0
1.2131529034389030 3.3076045991517051 0.0
1.1535759588475181 0.4744208147309900 0.0
0.9427349775758856 0.3759570421754349 0.0
0.8798469037831070 0.0528222274106796 0.0
4.1237889339754652 2.4669124022768747 0.0
3.8383799264242833 2.8497816547297186 0.0
2.7436774337002583 1.6115543061815121 0.0
1.0306236325060407 1.4839164460074337 0.0
3.9671991371812036 2.6528745845450930 0.0
4.1663906943044289 2.3725597574518913 0.0
4.3043637959684462 2.2351144065790769 0.0
4.0939088278778595 1.9679302859677894 0.0
1.6335545229188173 2.3202444211030007 0.0
3.8000947966377461 -0.1855872601214713 0.0
1.2159090478940220 0.6139062110273771 0.0
3.8452427824853381 1.5586682537808725 0.0
3.9357400901769801 1.4395811300514971 0.0
2.5571556115375773 1.7499871964634583 0.0
3.0717467048783984 1.5232455922725725 0.0
3.0717464849892964 2.0771703958709034 0.0
3.0704589879349702 1.9392647458158689 0.0
3.3503217952646507 1.7836462637645663 0.0
3.9962930486705628 2.2713500031112313 0.0
1.0316191633248069 0.1406901284474815 0.0
2.8676005688954556 2.1275604304379674 0.0
2.3823007681688346 0.8509583238846302 0.0
2.7319538999621753 1.9803056074091983 0.0
2.3923795680881734 -0.0518382678856107 0.0
4.1578584569605352 -0.7818187147150801 0.0
0.9397515604693940 0.9564363474681936 0.0
2.3130219157869409 -1.0760448737169206 0.0
4.0898730688346285 2.5932454475223956 0.0
2.8437252377509101 1.4337739049878098 0.0
3.1379794733440289 1.8782431022142658 0.0
3.4917972062356730 3.9779243941236881 0.0
0.5213324399254687 1.6424459589988840 0.0
3.7528491205933365 2.7551693020215366 0.0
1.5511950985242813 1.8409423237968265 0.0
2.9079568482088565 -0.7056833195342498 0.0
3.7701318492464568 0.8297105290784116 0.0
3.6319379968979821 2.4726088601152494 0.0
0.6289619689370659 0.4963413739463552 0.0
1.2013244908652636 2.2394466424278279 0.0
3.1057529200001968 2.7505320075560435 0.0
1.7179586137613962 2.9227256420449135 0.0
1.0193674237424182 1.8921029000381271 0.0
0.8130010871175430 1.5837219504746090 0.0
1.6637009827893743 3.0813960326992587 0.0
1.4433916751489573 1.1842834737468069 0.0
2.1903494858018968 -1.4148458675168676 0.0
2.1114649363113429 1.5656602466445897 0.0
0.6589747641446667 0.2918644980821647 0.0
0.7639380970349371 0.5774228127361398 0.0
3.9215850902945033 3.4615184176674076 0.0
1.2597368018108130 -0.0788307043188370 0.0
3.4232112888925346 0.8326689668099830 0.0
4.1272255455590789 -0.1946840606266541 0.0
3.9104516978008115 2.4059931042452809 0.0
1.1250736272233468 3.3292141706044758 0.0
2.4733514976312598 0.6903481055331141 0.0
0.5888782785645337 0.3540431102831225 0.0
3.4525334713499012 -0.5003752831421346 0.0
3.6907068322146168 2.6431387562926858 0.0
0.7358053987332056 -0.0169649139183848 0.0
2.5667106983919252 -0.2784610365255924 0.0
2.6354706113445481 1.4178508759940529 0.0
3.6933923508284323 -1.7368492205512105 0.0
0.7820342838078844 0.1049356601765045 0.0
2.4072846903695440 1.5277554360193910 0.0
2.8549897049095510 2.4220730292757318 0.0
2.2148659379864943 1.9614957939377662 0.0
3.9228116513208415 2.5265219866725008 0.0
3.7750352606667503 1.9537399461943377 0.0
2.4817710724251638 1.1068857561728991 0.0
3.7093799603552595 3.7863958872087684 0.0
4.1914389819215083 2.1491025207153491 0.0
0.9324518100867061 0.5973999338571320 0.0
3.1439316593253732 3.2360146101232679 0.0
2.7159021205794054 1.6798210074798900 0.0
4.2227627307361919 2.2288125384506183 0.0
4.1386422230148998 2.0555640884247204 0.0
3.1106346241494149 2.1904086341718427 0.0
3.7449187605820757 2.5827480191248418 0.0
1.2603571970530147 -0.7699584028768099 0.0
3.2586777809665346 0.6427249270194454 0.0
4.0160186247689680 0.1242869075469268 0.0
1.6698187951641832 4.0683864857107768 0.0
2.2535636778427737 1.8642907474731871 0.0
0.7053911912572166 0.6015133415896307 0.0
4.0139109968601216 2.5973550352929200 0.0
4.2941865022207910 2.1837617998489089 0.0
3.9026482732844427 1.1994422670955118 0.0
3.8206294525136340 2.1984550097737854 0.0
3.8236550924493136 2.9151668669643653 0.0
3.4147491496033666 0.0655737870447292 0.0
3.9096109410123709 3.4745377896959226 0.0
3.8016754687403536 2.4537884583924296 0.0
3.7544118685766108 1.9871191028157611 0.0
3.5939026167819152 1.7558122489822341 0.0
2.8218424457853333 1.7802639621490230 0.0
3.3428626756576287 1.3971669226958401 0.0
3.1939376484877355 1.6652837649424685 0.0
3.1556785750061480 2.3310568960125400 0.0
3.2795759386743155 2.5107348465700547 0.0
3.0134191425967289 -0.5063469757004501 0.0
3.6098549249071641 3.8489391964495772 0.0
2.5168640632529566 2.1177382187578093 0.0
2.8954447802178209 1.4104251244966657 0.0
3.9383980108528482 0.5380145202151423 0.0
2.2992706757925365 0.3649155059695439 0.0
3.7019240875778792 1.2415604913901348 0.0
2.7982684382403651 2.6269405223968283 0.0
3.4916015422652769 4.5880883047141330 0.0
3.6351367429582733 2.6420999928877835 0.0
2.2309659017945629 1.3114290607853092 0.0
4.3406988472287722 2.3657059158593010 0.0
4.0262658911936224 2.5764346373707938 0.0
2.8484858033803562 -0.7948255753882684 0.0
4.1168011084842995 1.8435162077443930 0.0
2.5123853238164280 2.0258074921075924 0.0
2.5455540147485198 1.0795087782813400 0.0
3.9421984542435586 2.7251167785944905 0.0
2.7301042958536503 1.3544658065578978 0.0
3.8245716012425017 -0.4455176643824762 0.0
1.9595615085507860 1.4228679485539886 0.0
2.2102334888518627 0.6132399931690153 0.0
2.0692949521053534 0.0353030649776004 0.0
4.1873679716960615 2.4876574958780662 0.0
2.6059123795152646 1.7211851555365580 0.0
2.8081160807053633 2.4555822558060507 0.0
2.9347132426710463 4.7381530426117173 0.0
2.3367715450776210 1.2476267354620731 0.0
2.5251885587120224 2.8796493810315384 0.0
2.1852322588050068 1.6488304801885532 0.0
3.2865307123566780 3.5015223732255061 0.0
1.8207558950817864 1.7698967324281449 0.0
4.0009945242835023 -0.1090148408355027 0.0
3.4974237753734627 2.2515219181566128 0.0
3.9049814770475977 2.5714817682290709 0.0
4.0021020371183518 2.0272720427161937 0.0
4.0495124299905072 2.1339546071990045 0.0
3.6164168758393926 0.4509311123141647 0.0
3.1313073611572624 1.6063804719450732 0.0
1.6450838585769878 1.6761078665165956 0.0
2.2263937007509829 1.0647355727159886 0.0
2.8644821224584973 -1.0494114421557468 0.0
3.7436263863563277 2.5604138249185100 0.0
3.8695463739402416 1.9972201207322047 0.0
1.3968655500814058 0.0717514980782768 0.0
2.0225035661342665 1.1035677568027118 0.0
3.7372611313094213 3.1644335394836332 0.0
1.1074283525410182 0.4447557339148127 0.0
1.8313759876069287 3.2599920911025579 0.0
1.4600038316046970 0.8431434357252022 0.0
3.9959667717807466 1.6031413921737181 0.0
1.8406111912500840 2.2641845326771017 0.0
1.0882040277064344 0.7215025782784115 0.0
2.1245938812213754 2.3889697788054423 0.0
2.7843992321205024 3.3820577803576275 0.0
3.3131415841703338 1.1095576331364396 0.0
3.8520087777320966 0.6500763226062523 0.0
3.5697961237948848 2.2143026303243656 0.0
3.7617017852731265 -1.1330647205350501 0.0
3.2682141622338667 1.7646478324664452 0.0
4.0246066007770525 1.8260128360175383 0.0
1.6354180842944632 -0.3353643947561442 0.0
1.4143236216845247 1.5105687097260911 0.0
3.4472361532553801 2.5841559844644668 0.0
1.2889115318410764 1.8027593612165163 0.0
3.6104151627257393 2.7453324292922283 0.0
3.9430178728387317 1.0985113605739529 0.0
1.4492692720705820 0.7690480061479074 0.0
1.3676559141762128 1.3027551866371689 0.0
3.9178826045293982 -0.9432558667960851 0.0
1.8249851306668388 1.8426906137202863 0.0
1.5043462664958775 0.8498658047692097 0.0
1.2332754252218150 0.1590089347078900 0.0
3.7101798859941999 2.3450313531346709 0.0
4.0500690233620524 0.1400169796070814 0.0
3.1273735229713036 -0.3230866525016143 0.0
1.5934213403248736 3.1018860849985379 0.0
1.1782604370589813 0.9973444557823555 0.0
4.0976531859289809 2.1620344071125053 0.0
1.3268618615853551 0.8003743206179897 0.0
1.5294799939672667 2.7801482619857558 0.0
3.6941434484016464 2.1090393089691171 0.0
1.3197243709627740 -0.2707939045229016 0.0
3.3004154422832763 0.8061720419627094 0.0
3.1582969595806052 2.4887613273876998 0.0
2.6857267858951932 -1.4078936080012532 0.0
4.1096226640478948 2.6170360755448105 0.0
3.4293650112638923 1.9810622683737780 0.0
3.8142800884104284 0.2082074964900713 0.0
2.0000743438728890 3.0560654719391072 0.0
3.6272598620232004 3.6725458938478543 0.0
2.4430005495325635 4.0338198195854762 0.0
0.8509880768806186 0.8049020890301414 0.0
3.7677309943678767 2.5375916977611643 0.0
1.0499392600454800 0.5552028001073529 0.0
2.8251489000077172 0.2457287779526220 0.0
2.1248397929292242 2.2102407672363862 0.0
3.6014909410408333 2.8384188861875606 0.0
3.1427283751091721 1.0517497537354057 0.0
0.8213591580315109 0.5886871033222086 0.0
4.1650698475709138 2.0767214437997246 0.0
4.1360534997997753 -0.4754689412646171 0.0
3.5576414141791592 1.6608542215843611 0.0
2.2963692649244907 1.5870119534198472 0.0
0.7641786049584396 3.4574472034823058 0.0
0.9836842332319073 0.8438494047348913 0.0
4.2454899378144555 2.0595026759209123 0.0
1.3044222906487009 1.0392456008574218 0.0
1.2328885035854769 0.4810097627729662 0.0
3.1031010434410362 1.8362465238538139 0.0
1.4049923579164014 -0.2956243343079085 0.0
4.2682569952909786 2.4573615464199152 0.0
3.7473244998293889 1.7035937618512089 0.0
3.1849648602343388 2.2172996257892783 0.0
2.8935179606088544 2.9966200708566704 0.0
3.9336388171172598 3.2610865535045144 0.0
0.9440909510129124 0.2995721386371030 0.0
1.7262041309824478 2.4101644127337778 0.0
4.0772959326881599 2.5416600635564404 0.0
3.6905115044658459 -1.4064484553090204 0.0
1.2131529722801613 3.3076046040461118 0.0
1.1614361012147862 0.4780639926380006 0.0
0.9344082393364066 0.3722558281003832 0.0
0.8819629988098470 0.0536550528833679 0.0
4.1218536501693608 2.4636871326157688 0.0
3.8421145593141532 2.8429977255857426 0.0
2.7304428762083170 1.6024864852339369 0.0
1.0308087980346201 1.4839439659035689 0.0
3.9732494903806015 2.6466469858740829 0.0
4.1740974642608570 2.3781662294638362 0.0
4.3052199678236365 2.2387707480784012 0.0
4.0863589953444217 1.9738712449288329 0.0
1.6335521517891975 2.3202475345761009 0.0
3.7999723993589831 -0.1842014122011757 0.0
1.2087895874796390 0.6112589917293716 0.0
3.8493666681264198 1.5665449172382793 0.0
3.9359611767832430 1.4478413745738081 0.0
2.5533616893013904 1.7437450276749651 0.0
3.0576979262747641 1.5204322127996304 0.0
3.0646949084616733 2.0671979347683163 0.0
3.0856250068849818 1.9478762479317868 0.0
3.3637274055527207 1.7914871347469994 0.0
3.9857077100218739 2.2680863479576256 0.0
1.0321205006617684 0.1410906071694580 0.0
2.8795135728684977 2.1273753058107885 0.0
2.3911196623417212 0.8564840581796476 0.0
2.7220676655312670 1.9705345905957083 0.0
2.3931920782839717 -0.0502453507198723 0.0
4.1579797778302900 -0.7818260061224780 0.0
0.9399111352251156 0.9566289982974134 0.0
2.3130229241496343 -1.0760436185336610 0.0