# vtk DataFile Version 3.0
LucasCarvalhoTCC Results
ASCII

DATASET POLYDATA
FIELD FieldData 1
TIME 1 1 double
3.2

POINTS 531 float
0.02430399999999999 0.16425 0.0
0.5913384 0.481878 0.0
1.30475 0.591832 0.0
0.774126 0.951272 0.0
0.04779564148251592 0.1966194329439859 0.0
0.0726092153537953 0.2279866320496896 0.0
0.09876577335895967 0.2582426022760065 0.0
0.1262817198684718 0.2872673048853742 0.0
0.1551671626852806 0.3149288071400502 0.0
0.1854238368919928 0.3410826624766006 0.0
0.2170424591499632 0.3655716640299072 0.0
0.2499995164635996 0.3882263409476824 0.0
0.2842534387828506 0.4088665906889567 0.0
0.3197403359862048 0.4273050841371062 0.0
0.3563695945475563 0.4433531534921038 0.0
0.3940201673622058 0.4568300511916809 0.0
0.4325386107291805 0.4675762214989666 0.0
0.4717406913237268 0.4754709112408955 0.0
0.5114182513144845 0.480453442081874 0.0
0.5513531678859215 0.4825464217651069 0.0
0.6182637923774223 0.5096055604109244 0.0
0.647389101376845 0.5350126187545199 0.0
0.6784752958296183 0.5579802184492302 0.0
0.7112421079139344 0.5784810076698811 0.0
0.7454110434104482 0.5965507527581431 0.0
0.7807301979183381 0.6122562812860965 0.0
0.8169827939052532 0.6256694297140926 0.0
0.853985522124928 0.6368498290413532 0.0
0.8915818964261243 0.6458353363890481 0.0
0.9296339776508085 0.6526379336565091 0.0
0.9680139759519513 0.6572432424840469 0.0
1.006596418266983 0.659612648128084 0.0
1.045251165872634 0.6596877658251245 0.0
1.083837680945672 0.657397570658483 0.0
1.122201320191055 0.6526688455666412 0.0
1.160173053543044 0.6454405726452737 0.0
1.197574286953346 0.6356824063786186 0.0
1.23422961949795 0.6234159704281613 0.0
1.26998758503999 0.6087366500005643 0.0
1.285086682927543 0.6256533177085738 0.0
1.263669745906668 0.6583917156018083 0.0
1.240480125919214 0.6898988493917133 0.0
1.215532715641304 0.7200329197235763 0.0
1.188869833862339 0.7486599839005789 0.0
1.160556835593143 0.7756559317113654 0.0
1.130680194163798 0.8009104211039757 0.0
1.099347083827048 0.8243335727704395 0.0
1.066684425336412 0.8458643604021228 0.0
1.03283497048792 0.8654772531176074 0.0
0.9979492572630678 0.8831824104874066 0.0
0.9621749986495024 0.8990166556695112 0.0
0.9256475378616493 0.9130272060048579 0.0
0.8884846540507749 0.9252538945090274 0.0
0.8507866567183312 0.935715378288671 0.0
0.8126405010322847 0.9444016349017643 0.0
0.7365055179612304 0.9396161853607135 0.0
0.699310855231089 0.9266666891603924 0.0
0.6626179171945521 0.9123577070090924 0.0
0.6264901449910028 0.8966765244755546 0.0
0.5909789825447118 0.8796450886595113 0.0
0.556124897941028 0.8613059841617771 0.0
0.5219601957009091 0.8417124664434518 0.0
0.4885110616878257 0.8209207172498462 0.0
0.4558007060429968 0.7989848675704875 0.0
0.4238520247653796 0.775953675763176 0.0
0.3926900138417566 0.7518687036338616 0.0
0.3623437622133722 0.7267636709390595 0.0
0.3328479550295906 0.7006647540504483 0.0
0.3042438201183181 0.6735915983461908 0.0
0.2765795358619001 0.6455588748284606 0.0
0.2499101143933102 0.6165781952942546 0.0
0.2242967982692083 0.5866601984136335 0.0
0.1998060807431611 0.5558166834807132 0.0
0.1765083808984156 0.5240625786010467 0.0
0.154476512720734 0.491417660368959 0.0
0.133784033184808 0.457907916333494 0.0
0.114503564227142 0.4235664945146766 0.0
0.09670517293008124 0.3884342245925089 0.0
0.0804548910754031 0.3525597611689231 0.0
0.06581337946329963 0.3159993090744527 0.0
0.05283482490365372 0.2788161107032479 0.0
0.0415660226296666 0.2410796291505872 0.0
0.03204569406625649 0.2028646095712164 0.0
0.5272009874003867 0.6419624505772817 0.0
0.7421848286576707 0.7716726266421574 0.0
0.8789503364783713 0.7829234141383637 0.0
0.6149390992905563 0.7449438030688011 0.0
0.4064556042659638 0.5942834991165423 0.0
0.9875021850865396 0.7666507358101158 0.0
0.3188065960661005 0.539594034984892 0.0
0.61365100263957 0.6399487878797632 0.0
0.8049090660915541 0.8464379870891131 0.0
0.7099820328572021 0.6828840522539854 0.0
0.5239467234991928 0.7406922291088611 0.0
0.8154056325591208 0.7211774015928547 0.0
0.6676178829014909 0.8152713180209475 0.0
0.4416080359619968 0.674360953773491 0.0
0.489443615375965 0.5654986742123573 0.0
1.076665773779852 0.7387182918829318 0.0
0.250390543112057 0.4877450112830265 0.0
0.5736819937919005 0.5790366884881447 0.0
0.7263706755366466 0.8615301097563091 0.0
0.940143307772686 0.8233944909985552 0.0
0.927065543677544 0.7236459161626674 0.0
0.8744389806957806 0.8609114380468947 0.0
0.336888362650554 0.6081958070931937 0.0
0.2030757334857187 0.4383942902513459 0.0
0.3861483329720647 0.5255533415902591 0.0
0.5621001921466506 0.7923778419149285 0.0
0.6822897332295245 0.7428043323059399 0.0
0.5764061681675353 0.6881266532454204 0.0
1.129195449682892 0.7163224153578123 0.0
0.8157794419559141 0.7831214907157077 0.0
0.3806644703311284 0.6554275822782399 0.0
0.7695737871052837 0.669593045341503 0.0
0.4699375460410929 0.6217118815516158 0.0
0.6830867370872363 0.630350317562806 0.0
1.040416897214502 0.7929392348941093 0.0
0.4604428393605979 0.7321209818568342 0.0
0.8729552856459739 0.7015083313474691 0.0
1.017010765275644 0.7166925631396708 0.0
0.6458785458483771 0.6946878992565794 0.0
0.7733575582969163 0.8941098392103913 0.0
0.4457537579383052 0.5273353624588528 0.0
0.163830623786951 0.3903175742448083 0.0
0.6095823984734953 0.8256600013628639 0.0
0.2618074352614998 0.5435604438425528 0.0
0.6287880420949764 0.5875838132975476 0.0
0.3100402147222924 0.4835410260423071 0.0
0.5422177893302824 0.5343158927797464 0.0
0.9964262112680041 0.8213447667248638 0.0
0.4971609598823845 0.6906859160718212 0.0
0.5740517260168769 0.633982031239429 0.0
0.7423299505107201 0.7218768583704394 0.0
0.767147744476665 0.819658485932403 0.0
0.9427329070375209 0.7774595780066723 0.0
0.8375285793481674 0.8869398470561132 0.0
0.2879426409425497 0.5872676364411625 0.0
0.6797562629663748 0.8647676397847667 0.0
1.171674168522591 0.6949964056806914 0.0
0.5261010885606964 0.6055079299963303 0.0
0.7081534744446967 0.8078672678314597 0.0
0.9681672688626206 0.705385299758921 0.0
0.7364069054947873 0.6432919177737106 0.0
0.363826821075015 0.5678764295233764 0.0
0.826170216989844 0.6605791783255148 0.0
0.1284439337099834 0.3602715082199688 0.0
0.518140828090112 0.783905985497134 0.0
0.8452908336054504 0.8167586152211004 0.0
0.2015204468558833 0.492088055688788 0.0
0.4005883523205732 0.7121294304856254 0.0
0.3551392316798573 0.4864133323669936 0.0
0.2501727034998737 0.4443035857235296 0.0
0.857938396055507 0.7390317828783199 0.0
0.9245301815433076 0.8668102132501951 0.0
0.5702050292970205 0.7323438487067678 0.0
1.111607633075016 0.759318252473435 0.0
0.6317193755596126 0.7853891653733797 0.0
0.7921381265818805 0.7497379312370454 0.0
1.088942426366261 0.7015435214091311 0.0
0.5818207607488639 0.5352340257544296 0.0
0.4203532416309484 0.6369649631143086 0.0
0.4854818714173937 0.5131439318707094 0.0
0.4475429831528036 0.5690430472086269 0.0
0.8968753306595262 0.8225547516037004 0.0
0.6339557898063448 0.8543470494763272 0.0
0.3416564411796998 0.6516449771136894 0.0
1.082970576264455 0.7856036465430698 0.0
0.2255204648032354 0.5229464838393291 0.0
0.7335043541589261 0.9012744999286941 0.0
0.9097052989734319 0.6921177492721042 0.0
0.5363428275528405 0.6992389299864537 0.0
0.9657777897300287 0.8588269742066746 0.0
1.025947476617909 0.7556651119714124 0.0
0.1090829970454354 0.3226173037985549 0.0
0.4836644525169279 0.7663103281018557 0.0
0.6910856326166581 0.777867529208468 0.0
0.6694391877434097 0.5946719355048008 0.0
0.2954883530575775 0.4501042133334518 0.0
0.6746032498128595 0.6643957640016517 0.0
1.054636636429828 0.6974583960183274 0.0
0.8939255235163368 0.7470597914537064 0.0
0.3749741568555516 0.6190655430398917 0.0
1.204101441114554 0.6801433534918062 0.0
0.6130053345415899 0.6785345531932346 0.0
0.7679719108452487 0.8562682874000032 0.0
0.9710820219997449 0.8008372590855476 0.0
0.1608022352294362 0.4242591696906621 0.0
0.2865399820604418 0.5141369963640697 0.0
0.1962258775846918 0.4008383427744516 0.0
0.6210920174972845 0.5516143721732873 0.0
0.4843009180093644 0.6583977883024127 0.0
0.5695029195102991 0.8267073580550881 0.0
0.9562891163300477 0.7436031251145003 0.0
0.4174190173896447 0.5044019081507806 0.0
0.410860431802698 0.5535781448116232 0.0
0.8709320861791604 0.9002602580953145 0.0
0.427354757192076 0.7399041791280969 0.0
0.7107884943357746 0.7172753954970394 0.0
1.030382288537246 0.8267335242583146 0.0
0.7737440530215844 0.7115751739064536 0.0
0.8042035044852396 0.9123190309183211 0.0
0.0480920891272324 0.2181807374272496 0.0
0.3695079235280397 0.6886893012630373 0.0
0.773516204411121 0.7830673827025234 0.0
0.302776671534508 0.6210168062901616 0.0
0.7150573728414059 0.6149413270404035 0.0
0.5863276441271683 0.769748656022605 0.0
1.143752049005473 0.6780480059671409 0.0
0.6477132714923303 0.7318578097016951 0.0
0.8380052680878572 0.8531154611905379 0.0
0.5966224054445893 0.6051703156405629 0.0
0.3207240819522855 0.5772784374275386 0.0
0.3520131451607586 0.5263918604440553 0.0
0.8573528491808811 0.6709738722470224 0.0
0.1797236573643203 0.460867988842514 0.0
0.5540828191547277 0.6661566975721369 0.0
1.158039843450239 0.7357536542887966 0.0
0.08638006908591334 0.286237566592474 0.0
0.790861820497242 0.6466611559014377 0.0
0.5362079962218838 0.8121454698907893 0.0
0.9405172130232713 0.6862060282668497 0.0
0.6039359324506977 0.711463595189489 0.0
0.4440093493753478 0.6096873538428137 0.0
0.5500746279087338 0.7620941994763282 0.0
0.2578504496023611 0.5739900063885278 0.0
0.502526452350101 0.6209820553182169 0.0
0.6799833858912959 0.7033681517905728 0.0
0.7183487148906835 0.7518430858176317 0.0
0.8006701240044786 0.8118713608014352 0.0
0.1304684854221093 0.3934039266496895 0.0
1.00789495394612 0.7937868725857601 0.0
0.696960396255943 0.893370944718147 0.0
0.8258315165019564 0.7538365084989149 0.0
0.8462950259502577 0.775614153529746 0.0
0.4082018839227037 0.6749460331934272 0.0
0.7025889307788081 0.8378536687159448 0.0
0.4666676520109517 0.6984557076050861 0.0
[...]
POINT_DATA 531

VECTORS Velocity float
0.0000000000000000 1.0000000000000000 0.0
0.0000000000000000 1.0000000000000000 0.0
2.6381769616855242 -0.9593332626233594 0.0
1.7900619046347439 1.0239057552027697 0.0
0.0000000000000000 1.0000000000000000 0.0
0.0000000000000000 1.0000000000000000 0.0
0.0000000000000000 1.0000000000000000 0.0
0.0000000000000000 1.0000000000000000 0.0
0.0000000000000000 1.0000000000000000 0.0
0.0000000000000000 1.0000000000000000 0.0
0.0000000000000000 1.0000000000000000 0.0
0.0000000000000000 1.0000000000000000 0.0
0.0000000000000000 1.0000000000000000 0.0
0.0000000000000000 1.0000000000000000 0.0
0.0000000000000000 1.0000000000000000 0.0
0.0000000000000000 1.0000000000000000 0.0
0.0000000000000000 1.0000000000000000 0.0
0.0000000000000000 1.0000000000000000 0.0
0.0000000000000000 1.0000000000000000 0.0
0.0000000000000000 1.0000000000000000 0.0
0.0000000000000000 0.0000000000000000 0.0
0.0000000000000000 0.0000000000000000 0.0
0.0000000000000000 0.0000000000000000 0.0
0.0000000000000000 0.0000000000000000 0.0
0.0000000000000000 0.0000000000000000 0.0
0.0000000000000000 0.0000000000000000 0.0
0.0000000000000000 0.0000000000000000 0.0
0.0000000000000000 0.0000000000000000 0.0
0.0000000000000000 0.0000000000000000 0.0
0.0000000000000000 0.0000000000000000 0.0
0.0000000000000000 0.0000000000000000 0.0
0.0000000000000000 0.0000000000000000 0.0
0.0000000000000000 0.0000000000000000 0.0
0.0000000000000000 0.0000000000000000 0.0
0.0000000000000000 0.0000000000000000 0.0
0.0000000000000000 0.0000000000000000 0.0
0.0000000000000000 0.0000000000000000 0.0
0.0000000000000000 0.0000000000000000 0.0
0.0000000000000000 0.0000000000000000 0.0
2.6783053322012691 -1.7943280926294629 0.0
3.6709994003024842 -2.3039648216035453 0.0
3.7610380890787192 -2.2279347646993033 0.0
3.7600891349342671 -1.9716441713532165 0.0
3.8360055463125717 -1.7456203000336683 0.0
3.9131497282599068 -1.4272057163238756 0.0
3.9494041006083260 -1.2489224335559821 0.0
4.0308301097049082 -1.0071760644017842 0.0
3.9581630599157838 -0.6876540977510112 0.0
3.9180529404487427 -0.4203179401899508 0.0
3.7818681293195420 -0.1378015193784090 0.0
3.5780310813871661 0.1392566314321530 0.0
3.4180231035535247 0.3573627867366324 0.0
3.1089710501731780 0.5791381307238502 0.0
2.5528047913676390 1.0839507214436055 0.0
1.7769745911694073 0.9498137443759297 0.0
0.0000000000000000 0.0000000000000000 0.0
0.0000000000000000 0.0000000000000000 0.0
0.0000000000000000 0.0000000000000000 0.0
0.0000000000000000 0.0000000000000000 0.0
0.0000000000000000 0.0000000000000000 0.0
0.0000000000000000 0.0000000000000000 0.0
0.0000000000000000 0.0000000000000000 0.0
0.0000000000000000 0.0000000000000000 0.0
0.0000000000000000 0.0000000000000000 0.0
0.0000000000000000 0.0000000000000000 0.0
0.0000000000000000 0.0000000000000000 0.0
0.0000000000000000 0.0000000000000000 0.0
0.0000000000000000 0.0000000000000000 0.0
0.0000000000000000 0.0000000000000000 0.0
0.0000000000000000 0.0000000000000000 0.0
0.0000000000000000 0.0000000000000000 0.0
0.0000000000000000 0.0000000000000000 0.0
0.0000000000000000 0.0000000000000000 0.0
0.0000000000000000 0.0000000000000000 0.0
0.0000000000000000 0.0000000000000000 0.0
0.0000000000000000 0.0000000000000000 0.0
0.0000000000000000 0.0000000000000000 0.0
0.0000000000000000 0.0000000000000000 0.0
0.0000000000000000 0.0000000000000000 0.0
0.0000000000000000 0.0000000000000000 0.0
0.0000000000000000 0.0000000000000000 0.0
0.0000000000000000 0.0000000000000000 0.0
0.0000000000000000 0.0000000000000000 0.0
3.8964606120533629 2.5771418074916399 0.0
4.2191430814036250 2.0298239633826185 0.0
3.9130758691838858 1.1210798304447844 0.0
3.8257164426762751 2.2012288435178036 0.0
3.7975989442493310 2.9190828266603348 0.0
3.5345654918192748 0.1257193896405563 0.0
3.9042408246326858 3.4862116734113124 0.0
3.7004099369450123 2.4314610050386407 0.0
3.6850143064909120 1.8332278855709583 0.0
3.5619216042241861 1.7061256400765743 0.0
2.8944806382412542 1.8603220330542107 0.0
3.4372749594971177 1.3379202581379606 0.0
3.2804797301795339 1.6819050858030256 0.0
3.1677724444136781 2.3795244488961163 0.0
3.2622164277138315 2.4740947982647401 0.0
3.0895859829307302 -0.4524384338198150 0.0
3.6081772976262259 3.8519947843513136 0.0
2.5237682101327961 2.1245537857331076 0.0
2.9770060930422870 1.4054587615341092 0.0
3.8375573220134860 0.5427765922729141 0.0
2.5094831666126240 0.3865401391953981 0.0
3.5678975520383536 1.1667414476184745 0.0
2.8058513587490883 2.6510685173464639 0.0
3.4916418146442907 4.5881644590036705 0.0
3.6173715396327628 2.6400251231333360 0.0
2.3490265130576731 1.3824141519082911 0.0
4.2633577502137658 2.2661296099564865 0.0
3.9363373795754475 2.5607654244104441 0.0
2.8862034790791724 -0.7797789794194389 0.0
4.0635140430105841 1.6913505436443719 0.0
2.5314463589868921 2.0656277261932510 0.0
2.5998437314741838 1.0609173979079303 0.0
3.8634011568618414 2.7036522399735703 0.0
2.7153383298639544 1.3597510842998040 0.0
3.8067775053883848 -0.3297189325000147 0.0
2.0338060357994201 1.4865723350460280 0.0
2.3864322680455219 0.6377897374034630 0.0
2.2218579531309577 0.0689415967916518 0.0
4.0809669880863400 2.4245401483384867 0.0
2.6470302075611434 1.6986462269591995 0.0
2.7967764355475246 2.4414865810662119 0.0
2.9348103310243703 4.7381063337432581 0.0
2.4496489633860845 1.3069241918825714 0.0
2.5260613236745550 2.8857061916181759 0.0
2.1943559243997117 1.6722459000163339 0.0
3.2795323040594444 3.5019905537744687 0.0
1.8532422131527329 1.7724752164529498 0.0
3.8835722318697870 -0.0073209711011990 0.0
3.4988013201454229 2.3029746740210415 0.0
3.7831975758418279 2.5439252205557810 0.0
3.9686617202118022 1.9045344626979821 0.0
3.9891183882510712 1.9863287805210081 0.0
3.6902685899477889 0.4731357609143563 0.0
3.0445616152822490 1.5268284066987186 0.0
1.6498090196488118 1.6843999867753932 0.0
2.3371343307261734 1.1052535907912413 0.0
2.8783081899828269 -1.0335553803288215 0.0
3.6622079623507746 2.5284296476100541 0.0
3.8793618311698888 1.9485724529220727 0.0
1.5498495204680616 0.0929192354629252 0.0
2.0343569667988568 1.0784404520098718 0.0
3.7277727149540731 3.1759554607549441 0.0
1.1790400674277377 0.4575619321555117 0.0
1.8313890870505489 3.2599716685821685 0.0
1.5366810237202886 0.8972093880411228 0.0
3.9030990558555620 1.4726364423996814 0.0
1.8404996135260125 2.2646970291184068 0.0
1.1198078419814261 0.7529431452482079 0.0
2.1135189089714914 2.3894247507454054 0.0
2.7833594219027149 3.3826938327334841 0.0
3.4440584488642654 1.0782850641892276 0.0
3.6516482180209691 0.6594657067951519 0.0
3.5831686181098599 2.2572070002936209 0.0
3.7572656999934897 -1.0723918769040379 0.0
3.3529942975302012 1.7975952871472312 0.0
4.0139561382777806 1.6920982486847669 0.0
1.6925430945700826 -0.3229488567735218 0.0
1.4417740435127375 1.5221341920982807 0.0
3.4346713952307133 2.6138889402661212 0.0
1.2952973310272951 1.7951099862972066 0.0
3.5822224548809740 2.7186533794746914 0.0
3.8364493108270312 1.0250611386979425 0.0
1.5314569212562967 0.8105864470673896 0.0
1.3798087046744332 1.3238788712592804 0.0
3.8868402850389545 -0.8236889718235070 0.0
1.8249507501084008 1.8446282298809373 0.0
1.5569027640804247 0.8550766856692310 0.0
1.3722403234269525 0.1645261324179536 0.0
3.6896481430080517 2.3794174145579108 0.0
3.8137596618357787 0.2182037211739739 0.0
3.2445168179955934 -0.2391520964375399 0.0
1.5934201391292180 3.1018892507623361 0.0
1.2395722001439762 1.0527894320816835 0.0
4.0807309775522800 2.0920490378257868 0.0
1.3282827097846888 0.8086967677151240 0.0
1.5270459617840426 2.7800554999403269 0.0
3.6278836755924000 2.0681212259423178 0.0
1.3960824648428842 -0.2564066957643334 0.0
3.4523711884150932 0.7972240583617740 0.0
3.1615492873992825 2.5212031282081582 0.0
2.6878608088612523 -1.4036569420499272 0.0
3.9899063242291888 2.5606992625001355 0.0
3.4379296334392682 1.8982450516423137 0.0
3.8045374988562628 0.2563856784830925 0.0
2.0001130647454741 3.0558636868048965 0.0
3.6231745692051880 3.6784717270778584 0.0
2.4432295978453937 4.0337623504048583 0.0
0.8633073070008099 0.8219751334943670 0.0
3.7135276668758523 2.5521053341567859 0.0
1.1204830765442908 0.5920307347472151 0.0
3.0178497770136419 0.2803790378863024 0.0
2.1114284202645384 2.2026395436108168 0.0
3.5803516814688421 2.8293999967064116 0.0
3.0205651927860089 1.0292320531977888 0.0
0.8586484534770882 0.6228867847325432 0.0
4.1025045615484093 1.9798400706648347 0.0
3.9723977965179889 -0.3369646824119586 0.0
3.5885803788569657 1.5760947364739080 0.0
2.2874633178949924 1.5604657225425087 0.0
0.7641786020341190 3.4574472115547068 0.0
1.0043936427315512 0.8697585738684088 0.0
4.1656132671333763 1.8921842684130059 0.0
1.3100757708861706 1.0489624353390081 0.0
1.2308241977151824 0.4770883402478887 0.0
3.1953652053515817 1.8921550207470805 0.0
1.4282518779406419 -0.2919864037958489 0.0
4.1867703782587258 2.3916642978605638 0.0
3.6474373705184360 1.5881908461872554 0.0
3.1405169595280391 2.2225636923016876 0.0
2.8991396994640390 3.0140079294480602 0.0
3.9171471053212028 3.2643674784528995 0.0
1.0299298206007854 0.3146210514273539 0.0
1.7260454350739129 2.4099976206122138 0.0
3.9590606258845455 2.5312649932961109 0.0
3.6871045073423172 -1.3651182723759143 0.0
1.2131514818910660 3.3076050017858174 0.0
1.2079242488642374 0.4875766739092238 0.0
1.0002000678292715 0.3991665970156794 0.0
0.9894977237688377 0.0576224009662703 0.0
4.0403999792248850 2.4368561937596680 0.0
3.7961111374549446 2.8326191227065314 0.0
2.8247200133169272 1.6774571622641561 0.0
1.0327094911417138 1.4892110392813314 0.0
3.8776337968206183 2.6204533066504592 0.0
4.0858503438752498 2.2933822004924265 0.0
4.2334937261202654 2.1075674288636561 0.0
4.0010200310171378 1.8011637941865455 0.0
1.6336004180664525 2.3201756032984204 0.0
3.7993243992729955 -0.0761960714272828 0.0
1.2688359597577410 0.6299668356929866 0.0
3.8783917488232693 1.4710289558280223 0.0
3.9352858044320853 1.3464017572358449 0.0
2.5791630422105678 1.7957437957952982 0.0
3.1347667829175827 1.5099285019558035 0.0
3.0887586728820491 2.1252629433650130 0.0
3.0524819040692353 1.9454734849186819 0.0
3.3714682911195064 1.7125314480148877 0.0
3.9902856434592131 2.2242506224863141 0.0
1.1386483242182617 0.1633891948626363 0.0
2.8781786267456635 2.1145616586411897 0.0
2.5463303219258955 0.8668790765773919 0.0
2.7834974315909706 2.0318283104308392 0.0
2.5791075791001910 -0.0088724667240723 0.0
4.0350942293256473 -0.6296806133055352 0.0
0.9407682601923145 0.9590800102327472 0.0
2.3132462018678308 -1.0759535341501678 0.0
3.9609008329301156 2.5585397872813567 0.0
2.8458085789793750 1.4320918961463802 0.0
3.1004974232741596 1.7793695959391043 0.0
3.4907175177763690 3.9788454230042758 0.0
0.5425956135637442 1.6426999447496295 0.0
3.7124335319852988 2.7096736291914874 0.0
1.5396602159233879 1.8393845516238834 0.0
2.9567014454491765 -0.6617555399463061 0.0
3.8010682664242248 0.8128320561910461 0.0
3.5665850812436868 2.4488896292373794 0.0
0.6594658018116997 0.5253969621977125 0.0
1.1978806707282750 2.2393296618983074 0.0
3.1072214336388591 2.7610376483871275 0.0
1.7179769962936184 2.9228885896574406 0.0
1.0160647560134477 1.8865855102849785 0.0
0.8363988324352754 1.5825163424558555 0.0
1.6638103600037062 3.0813992845951730 0.0
1.4662293723445461 1.1775530026698346 0.0
2.1901833564683817 -1.4150590742244706 0.0
2.1565618599131251 1.6225066945507098 0.0
0.7014969526378685 0.3055001969355657 0.0
0.7787593778518801 0.5921510961612231 0.0
3.9097379783663979 3.4644520637086389 0.0
1.2899801163573068 -0.0733034026487729 0.0
3.2487034498823313 0.8271286479802126 0.0
3.8928847009569303 -0.0690700568485661 0.0
3.8248402728478155 2.3741826001198749 0.0
1.1250736883235852 3.3292141144427068 0.0
2.6853589254782317 0.7026190957746083 0.0
0.6255857581824622 0.3787610981512453 0.0
3.5147944126048900 -0.3928288576742724 0.0
3.6545364686238133 2.6553784055454175 0.0
0.8103949564983642 -0.0095099207825830 0.0
2.6907728870555725 -0.2202935958837576 0.0
2.7439511328586361 1.4762127323993484 0.0
3.6939223122339944 -1.7169500187695139 0.0
0.8691534352880491 0.1109172288047100 0.0
2.5221019313289812 1.5808231156761525 0.0
2.8625436838295082 2.3923918441288383 0.0
2.2474863630255584 1.9441365942826565 0.0
3.8431724751265377 2.5251549894754239 0.0
3.7772511637616293 1.8831883133652383 0.0
2.5911022986427530 1.1001057834047834 0.0
3.7047278927442524 3.7875406904629618 0.0
4.1241531975519408 2.0193145869847151 0.0
0.9647402465490399 0.6056697596419244 0.0
3.1437952414383044 3.2415258086285226 0.0
2.7648144669140851 1.6551627437067740 0.0
4.1625727169243074 2.1127393281329225 0.0
4.1000975940382247 1.9150939271757788 0.0
3.0827067091692486 2.2073356549736292 0.0
3.6939854163021941 2.5448254241968242 0.0
1.2658524210408004 -0.7678539049320813 0.0
3.4218920071013081 0.6534351080567048 0.0
3.8649503455326637 0.2008491089119914 0.0
1.6698640446119641 4.0683841591943670 0.0
2.2829796811981251 1.8954385580153796 0.0
0.7244345264262060 0.6041752090888758 0.0
3.9135114825187247 2.5666167609888118 0.0
4.2119228387974701 2.0381284083038551 0.0
3.9121570713071963 1.1429775793426584 0.0
3.7924522517964747 2.1812810661898641 0.0
3.8065657356529377 2.9005115396084582 0.0
3.5354729749457778 0.1394868152455909 0.0
3.9087516917244178 3.4772595697134512 0.0
3.7404232927426939 2.4552297966131689 0.0
3.6439370919679841 1.8460714518826882 0.0
3.6076682002964664 1.7329953529876203 0.0
2.8535920313951850 1.8275047709762327 0.0
3.4760275256291568 1.3602833394236047 0.0
3.2312022852365638 1.6612295733825211 0.0
3.1445054646807375 2.3454429185187449 0.0
3.3010400750089084 2.4704123509776639 0.0
3.0902140024457241 -0.4505073113186946 0.0
3.6087500773987236 3.8510310185319359 0.0
2.5668142187006460 2.1405274231039932 0.0
2.9306803565806057 1.3952338488974081 0.0
3.8223543073603228 0.5585674726564464 0.0
2.5301775518385687 0.3985689287170651 0.0
3.5382324853917551 1.1793762375800543 0.0
2.8010312354012430 2.6349523996931850 0.0
3.4915652437554905 4.5881980026199782 0.0
3.6328696743964715 2.6357891698885965 0.0
2.3039443625718397 1.3561357688190818 0.0
4.2637526626392566 2.2696911308945618 0.0
3.9308920628883004 2.5496642643531477 0.0
2.8861097256535828 -0.7799650274299710 0.0
4.0589362075139395 1.7137828675064968 0.0
2.5159503796316747 2.0414038766511404 0.0
2.6456321986620930 1.0811017007476345 0.0
3.8764129861893095 2.6833561473016680 0.0
2.7651927999050874 1.3859766979902912 0.0
3.8047048756518715 -0.3241439574002365 0.0
1.9998510543348405 1.4592004264398784 0.0
2.4206176374113482 0.6498164950866779 0.0
2.2268021159581313 0.0741691670403600 0.0
4.1018117113247818 2.4379025116529376 0.0
2.6104027551666511 1.6968071386745696 0.0
2.8250595671049519 2.4411560729587229 0.0
2.9347645399817552 4.7381326170467233 0.0
2.4045107840034174 1.2833337304930026 0.0
2.5264376829802258 2.8831036513064356 0.0
2.2369193761642667 1.7017796447934199 0.0
3.2825906079686007 3.5010756045189426 0.0
1.8907085500936796 1.7782634383360907 0.0
3.8748282950210440 0.0022194518609108 0.0
3.4693313631781484 2.2707682996593030 0.0
3.8160913286390881 2.5503076619083997 0.0
4.0018645056529403 1.9232634199099055 0.0
3.9514852140371803 1.9918496699595776 0.0
3.6877116498338305 0.4901794490282671 0.0
3.0181543238815101 1.5325235786829461 0.0
1.6477284936360275 1.6792102845441599 0.0
2.2931815758981524 1.0882180860100579 0.0
2.8782183491524873 -1.0337688572908386 0.0
3.6955824233041223 2.5290021909547846 0.0
3.8363481503510832 1.9355175298816369 0.0
1.5626534641594496 0.1006471926293752 0.0
2.0754315881462828 1.0988800994740124 0.0
3.7340955648285834 3.1622636876507406 0.0
1.2068914469492511 0.4683708437345112 0.0
1.8313782967857053 3.2599861285218981 0.0
1.5043110237364823 0.8764814690906881 0.0
3.8790343577407307 1.4926643801734891 0.0
1.8406028925360787 2.2647287220515002 0.0
1.1021029535808080 0.7374967483294773 0.0
2.1214469298792085 2.3879604824796488 0.0
2.7834772147177378 3.3824568175152807 0.0
3.4695613384103403 1.0995593906464638 0.0
3.6338664556431963 0.6693199544217009 0.0
3.5499461557376160 2.2295922907342898 0.0
3.7576368780744924 -1.0725015312674586 0.0
3.3051571173593053 1.7739819073072363 0.0
4.0346171220978020 1.7127918289431947 0.0
1.6922027249535148 -0.3226997641224841 0.0
1.4720748269256978 1.5351231337690765 0.0
3.4269510118891766 2.5868163301502336 0.0
1.3192540654015312 1.7971464315749233 0.0
3.6082558819327257 2.7075279719246983 0.0
3.8161527674315114 1.0452393518169270 0.0
1.4971645837083651 0.7935779861986550 0.0
1.3707033140666858 1.3101750708959332 0.0
3.8870076370314255 -0.8221575780326574 0.0
1.8251487409986265 1.8440400475905177 0.0
1.5305707539606683 0.8503322917112150 0.0
1.3926642146684391 0.1718023529578033 0.0
3.6630930256496681 2.3537869268100504 0.0
3.8029382757765195 0.2252901869618118 0.0
3.2462004319198714 -0.2303326886601495 0.0
1.5934190212409567 3.1018880474648536 0.0
1.2114513595784031 1.0286308175262313 0.0
4.0497982661275955 2.0830437951794107 0.0
1.3620366820997558 0.8285947366958670 0.0
1.5277548206191525 2.7800687345223722 0.0
3.6739299690126961 2.0941245981915411 0.0
1.3970726340916848 -0.2546971881564017 0.0
3.4657516598374070 0.8169509219552300 0.0
3.1570198994459564 2.4971441127306382 0.0
2.6878510164238851 -1.4037117082836148 0.0
4.0090431298109666 2.5695670639954780 0.0
3.3914828164606030 1.8972001546111763 0.0
3.7970912849580953 0.2695100180133400 0.0
2.0000997715757447 3.0559879173283719 0.0
3.6254404633111772 3.6751158262357291 0.0
2.4431026213519558 4.0337831983193873 0.0
0.8860555575223948 0.8406097783844597 0.0
3.7047831173782284 2.5243700707746473 0.0
1.0919788292437136 0.5772774935871005 0.0
3.0286650824925965 0.2939915357159220 0.0
2.1290134494154831 2.2028491818127587 0.0
3.6013511802368803 2.8198724366045704 0.0
3.0020628354876164 1.0361866981865115 0.0
0.8402649331213264 0.6079238342873724 0.0
4.1319673158343724 1.9984528195469395 0.0
3.9682817178398309 -0.3327908985750322 0.0
3.6300074077907829 1.5986775035609504 0.0
2.2673850424225463 1.5613166233328939 0.0
0.7641786020341190 3.4574472115547077 0.0
0.9913073044752363 0.8551390587138602 0.0
4.1553659619401868 1.9065311284534066 0.0
1.3062156642632086 1.0421197360937959 0.0
1.2641133147004429 0.4917263409301846 0.0
3.1476063447900327 1.8643082574360610 0.0
1.4279363804965548 -0.2920254882029040 0.0
4.1833515063697329 2.3923271136244959 0.0
3.6093811794990609 1.6003204014495640 0.0
3.1867373068491016 2.2456773639791825 0.0
2.8966473886747450 3.0017193639165343 0.0
3.9281684629127076 3.2588612283588998 0.0
1.0538911077708928 0.3224313373949682 0.0
1.7261163142732183 2.4101717282559445 0.0
3.9642807779717306 2.5219664981809347 0.0
3.6873036710020455 -1.3654514636257196 0.0
1.2131522986857877 3.3076049797837279 0.0
1.2377438303721151 0.5002814850785750 0.0
0.9722189880859784 0.3868511045320193 0.0
1.0052841360824896 0.0616403423080586 0.0
4.0331886606372933 2.4268815093433109 0.0
3.8087533169277781 2.8097842489075728 0.0
2.7796770176886549 1.6477428066047703 0.0
1.0318688134030003 1.4861917001894334 0.0
3.8955774693455383 2.6048426161442655 0.0
4.1124228804052390 2.3106805339564920 0.0
4.2386085468154580 2.1148926088116040 0.0
3.9718573742636929 1.8168438089668928 0.0
1.6335850275234474 2.3202242202575172 0.0
3.7955241444013961 -0.0652022490119624 0.0
1.2428294697696649 0.6200456101500428 0.0
3.8961653972617234 1.4938119537425687 0.0
3.9362560112089899 1.3723855757040355 0.0
2.5580721575683860 1.7698885065769512 0.0
3.0857149327459807 1.4969820524757000 0.0
3.0580454882063512 2.0925946720314759 0.0
3.1030191188102489 1.9756116231909686 0.0
3.4194357379486582 1.7354755221033600 0.0
3.9557234257365277 2.2116565047582766 0.0
1.1461792552517838 0.1667357544281274 0.0
2.9225989110954038 2.1184039663645313 0.0
2.5861754144853912 0.8854638064967231 0.0
2.7458795448088629 2.0008545139620715 0.0
2.5876364830401606 0.0012899157925114 0.0
4.0338291887944457 -0.6277564576100767 0.0
0.9405087668609897 0.9580290351171149 0.0
2.3132405344319040 -1.0759517001790047 0.0