# vtk DataFile Version 3.0
LucasCarvalhoTCC Results
ASCII

DATASET POLYDATA
FIELD FieldData 1
TIME 1 1 double
0.01

POINTS 273 float
4.583333333332117 0.0 0.0
4.791666666666059 0.0 0.0
4.374999999998763 0.0 0.0
3.958333333331864 0.0 0.0
3.541666666664564 0.0 0.0
3.124999999997095 0.0 0.0
2.708333333329794 0.0 0.0
2.291666666662993 0.0 0.0
1.874999999996458 0.0 0.0
1.45833333333038 0.0 0.0
1.041666666664929 0.0 0.0
0.6249999999991942 0.0 0.0
0.2083333333330777 0.0 0.0
0.0 0.0 0.0
4.166666666665408 0.0 0.0
3.74999999999832 0.0 0.0
3.333333333330808 0.0 0.0
2.916666666663382 0.0 0.0
2.499999999996205 0.0 0.0
2.083333333329781 0.0 0.0
1.666666666663135 0.0 0.0
1.249999999997625 0.0 0.0
0.8333333333322329 0.0 0.0
0.4166666666661555 0.0 0.0
5.0 0.0 0.0
5.0 1.0 0.0
5.0 0.2499999999994194 0.0
5.0 0.499999999998694 0.0
5.0 0.749999999999347 0.0
5.0 0.1249999999997097 0.0
5.0 0.3749999999990567 0.0
5.0 0.6249999999990205 0.0
5.0 0.8749999999996735 0.0
4.791666666666922 1.0 0.0
0.2083333333333623 1.0 0.0
0.6250000000000253 1.0 0.0
1.041666666666726 1.0 0.0
1.458333333333393 1.0 0.0
1.874999999999877 1.0 0.0
2.291666666666544 1.0 0.0
2.708333333333085 1.0 0.0
3.124999999999752 1.0 0.0
3.5416666666666 1.0 0.0
3.958333333333268 1.0 0.0
4.375000000000254 1.0 0.0
0.0 1.0 0.0
0.4166666666667247 1.0 0.0
0.8333333333333259 1.0 0.0
1.250000000000127 1.0 0.0
1.66666666666666 1.0 0.0
2.083333333333093 1.0 0.0
2.499999999999995 1.0 0.0
2.916666666666175 1.0 0.0
3.33333333333333 1.0 0.0
3.749999999999871 1.0 0.0
4.166666666666665 1.0 0.0
4.583333333333843 1.0 0.0
0.0 0.7500000000009891 0.0
0.0 0.5000000000020591 0.0
0.0 0.2500000000010296 0.0
0.0 0.8750000000004945 0.0
0.0 0.6250000000015241 0.0
0.0 0.3750000000015444 0.0
0.0 0.1250000000005148 0.0
0.4128016944531732 0.4175683143768217 0.0
4.378259268480748 0.2991579007801742 0.0
0.5010888926055894 0.6054034216133208 0.0
4.368669665273361 0.7116469832461365 0.0
0.9990220222949553 0.5510256359289009 0.0
1.723806085874311 0.5085438569853729 0.0
3.770949601380545 0.5027448236220966 0.0
2.589946956831019 0.5018113080161319 0.0
0.4569452935293813 0.5114858679950713 0.0
0.6230675138927031 0.2087841571884109 0.0
0.9161776778135942 0.2755128179644504 0.0
0.7500554574502724 0.5782145287711109 0.0
0.6865614856714878 0.3934993429797609 0.0
2.544973478415507 0.750905654008066 0.0
1.695236376270485 0.7542719284926864 0.0
2.156876521352665 0.5051775825007524 0.0
2.120104927342879 0.7525887912503761 0.0
3.552141467356938 0.7513724118110483 0.0
3.180448279105782 0.5022780658191143 0.0
3.048557472885979 0.7511390329095571 0.0
4.074604434930647 0.4009513622011354 0.0
3.552141467355677 0.2513724118110483 0.0
4.272462967573078 0.1495789503900871 0.0
3.912302217464483 0.2004756811005677 0.0
2.544973478413612 0.250905654008066 0.0
3.048557472884582 0.2511390329095571 0.0
1.695236376268723 0.2542719284926864 0.0
2.120104927341223 0.2525887912503762 0.0
1.361414054084633 0.5297847464571368 0.0
1.305707027041129 0.2648923732285684 0.0
0.9161776778141406 0.7755128179644504 0.0
1.30570702704238 0.7648923732285684 0.0
4.267668165970013 0.8558234916230683 0.0
4.069809633326953 0.6071959034341166 0.0
3.909904816663412 0.8035979517170583 0.0
0.2064008472265866 0.4587841571894404 0.0
0.2505444463027947 0.8027017108066604 0.0
0.2284726467646906 0.6307429339980303 0.0
4.689129634240373 0.3995789503894341 0.0
4.684334832636681 0.6058234916224152 0.0
4.379469633783663 0.5033874269117753 0.0
0.311533756946371 0.2293920785947202 0.0
4.636231483786245 0.1997894751947532 0.0
4.633834082985262 0.8029117458112076 0.0
0.5833610620584985 0.7891072643855555 0.0
0.4790170930674854 0.5584446448041961 0.0
0.5717533896004345 0.4524926054874161 0.0
0.7183084715608801 0.4858569358754359 0.0
0.6255721750279308 0.5918089751922159 0.0
0.5986627823141827 0.5221507903398159 0.0
0.4348734939912773 0.4645270911859465 0.0
0.5179346041729381 0.3131762357826163 0.0
0.6548144997820955 0.3011417500840859 0.0
0.5448439968866864 0.3828344206350162 0.0
0.728200423612468 0.1043920785942054 0.0
0.8747555055729135 0.1377564089822252 0.0
0.801369581742541 0.3345060804721056 0.0
0.7647850026775045 0.2194490795331555 0.0
0.9575998500542747 0.4132692269466756 0.0
0.8745387398726139 0.5646200823500058 0.0
0.8379541608075773 0.4495630814110557 0.0
2.567460217623263 0.626358481012099 0.0
2.332539202879193 0.751747222629221 0.0
2.138490724347772 0.6288831868755642 0.0
2.373411739091842 0.5034944452584422 0.0
2.352975470985518 0.6276208339438316 0.0
2.522486739207751 0.8754528270040329 0.0
2.101719130337986 0.8762943956251881 0.0
2.312102934772868 0.8758736113146105 0.0
1.680951521468573 0.8771359642463432 0.0
1.907670651806682 0.7534303598715313 0.0
1.891335325903279 0.8767151799357656 0.0
1.709521231072398 0.6314078927390296 0.0
1.940341303613488 0.5068607197430626 0.0
1.924005977710085 0.6301455398072969 0.0
3.661545534368742 0.6270586177165725 0.0
3.300349470121458 0.7512557223603027 0.0
3.114502875995881 0.6267085493643356 0.0
3.475698940243164 0.5025114447206054 0.0
3.388024205182311 0.626883583540454 0.0
3.442737400345134 0.8756862059055242 0.0
2.982612069776077 0.8755695164547785 0.0
3.212674735060605 0.8756278611801513 0.0
2.796765475650743 0.7510223434588115 0.0
2.752549404491914 0.8755111717294057 0.0
2.885197617968401 0.5020446869176232 0.0
2.840981546809572 0.6265335151882172 0.0
4.226431851705698 0.3500546314906548 0.0
3.993453326197565 0.3007135216508516 0.0
4.09238259251878 0.1750273157453274 0.0
4.325361118026913 0.2243684255851306 0.0
4.159407222112239 0.2625409736179911 0.0
3.922777018155596 0.451848092911616 0.0
3.661545534368111 0.3770586177165725 0.0
3.73222184241008 0.225924046455808 0.0
3.827499430282838 0.338886069683712 0.0
3.442737400343242 0.1256862059055242 0.0
3.831151108731401 0.1002378405502839 0.0
3.636944254537322 0.112962023227904 0.0
4.219564817119243 0.07478947519504354 0.0
4.025357962925322 0.0875136578726637 0.0
3.114502875995182 0.3767085493643357 0.0
3.300349470120129 0.2512557223603027 0.0
3.388024205181646 0.376883583540454 0.0
2.567460217622315 0.376358481012099 0.0
2.796765475649097 0.2510223434588116 0.0
2.840981546808749 0.3765335151882174 0.0
2.522486739204909 0.125452827004033 0.0
2.982612069773982 0.1255695164547785 0.0
2.752549404489445 0.1255111717294058 0.0
3.212674735058612 0.1256278611801513 0.0
2.101719130335502 0.1262943956251881 0.0
1.907670651804973 0.2534303598715313 0.0
1.680951521465929 0.1271359642463432 0.0
1.891335325900716 0.1267151799357656 0.0
2.332539202877418 0.2517472226292211 0.0
2.312102934770206 0.1258736113146106 0.0
2.138490724346944 0.3788831868755643 0.0
2.35297547098463 0.3776208339438316 0.0
1.709521231071517 0.3814078927390296 0.0
1.92400597770923 0.3801455398072969 0.0
1.277853513519377 0.1324461866142842 0.0
1.110942352427362 0.2702025955965094 0.0
1.076304509546145 0.1351012977982547 0.0
1.500471701654926 0.2595821508606274 0.0
1.479402517492653 0.1297910754303137 0.0
1.542610069979472 0.5191643017212548 0.0
1.333560540562881 0.3973385598428526 0.0
1.521540885817199 0.3893732262909411 0.0
1.180218038189794 0.5404051911930188 0.0
1.145580195308578 0.4053038933947641 0.0
0.8747555055737333 0.8877564089822252 0.0
1.11094235242826 0.7702025955965094 0.0
1.277853513521253 0.8824461866142842 0.0
1.076304509547493 0.8851012977982546 0.0
0.957599850054548 0.6632692269466756 0.0
1.333560540563506 0.6473385598428526 0.0
1.145580195309027 0.6553038933947641 0.0
1.500471701656433 0.7595821508606274 0.0
1.521540885817952 0.6393732262909411 0.0
1.479402517494913 0.8797910754303138 0.0
4.318168915621687 0.7837352374346024 0.0
4.088786491316712 0.8297107216700632 0.0
3.989857224995182 0.7053969275755874 0.0
4.219239649300157 0.6594214433401265 0.0
4.154013070308435 0.7445660825050948 0.0
4.21716741631834 0.9279117458115341 0.0
3.829952408331642 0.9017989758585292 0.0
4.023559912324991 0.9148553608350317 0.0
3.731023142010175 0.7774851817640533 0.0
3.636344904338388 0.8887425908820267 0.0
3.920379617353749 0.5549703635281066 0.0
3.825701379681962 0.6662277726460799 0.0
0.1142363233823453 0.6903714669995097 0.0
0.2395085465337427 0.7167223224023453 0.0
0.1252722231513974 0.9013508554033303 0.0
0.1197542732668713 0.7958611612014199 0.0
0.1032004236132933 0.4793920785957497 0.0
0.2174367469956386 0.5447635455937353 0.0
0.1087183734978193 0.5848817727976298 0.0
0.3096012708398799 0.438176235783131 0.0
0.3427089701470359 0.5711144009965508 0.0
0.326155120493458 0.504645318389841 0.0
0.3758166694541921 0.7040525662099906 0.0
0.359262819800614 0.6375834836032708 0.0
4.227037034357155 0.4521693945564553 0.0
4.224639633555308 0.5552916651729459 0.0
4.073708325855453 0.5035698790422809 0.0
4.53369445136056 0.3493684255848041 0.0
4.534299634012019 0.4514831886506047 0.0
4.380365742858858 0.4007689100706298 0.0
4.844564817120187 0.449789475194064 0.0
4.842167416318341 0.5529117458105546 0.0
4.531902233210172 0.5546054592670953 0.0
4.688233525165179 0.5021974672305796 0.0
4.526502248955021 0.6587352374342759 0.0
4.375570941255164 0.607013451303611 0.0
0.1557668784731855 0.2396960392978749 0.0
0.2589673020864788 0.3440881178920803 0.0
0.1294836510432394 0.3595440589468124 0.0
0.3641002118062632 0.1146960392973601 0.0
0.1820501059031316 0.1198480196489375 0.0
0.467300635419537 0.2190881178915655 0.0
0.5461503177093656 0.1095440589457828 0.0
0.3884509531297085 0.3286321768373483 0.0
4.662680559013309 0.2996842127920937 0.0
4.818115741893123 0.2248947375970863 0.0
4.831340279506655 0.3373421063955752 0.0
4.454347225679662 0.1746842127924201 0.0
4.494020838520111 0.2620263191886121 0.0
4.609782408559181 0.0998947375973766 0.0
4.414673612839213 0.08734210639621007 0.0
4.80489120427959 0.1124473687985432 0.0
4.816917041492631 0.7764558729052773 0.0
4.659084457810971 0.7043676187168114 0.0
4.829542228905486 0.6646838093579159 0.0
4.608583708159552 0.9014558729056038 0.0
4.804291854079777 0.8882279364526386 0.0
4.450751124477637 0.8293676187171379 0.0
4.412875562238945 0.914683809358569 0.0
4.488626686716329 0.7440514280757069 0.0
0.7497693699363195 0.7823100411750029 0.0
0.6667082597543854 0.6836608965783332 0.0
0.8121540549044667 0.6734650617625043 0.0
0.5000138643626115 0.8945536321927777 0.0
0.6873846849681724 0.8911550205875014 0.0
0.4169527541806466 0.7959044875961079 0.0
0.3126430437570045 0.897952243798054 0.0
0.5212624646042887 0.6938567313941619 0.0

POLYGONS 480 1920
3 153 14 163
3 5 16 174
3 172 5 174
3 5 172 17
3 16 160 174
3 4 160 16
3 160 4 162
3 171 88 179
3 6 171 18
3 168 88 169
3 128 168 71
3 182 168 128
3 88 182 179
3 168 182 88
3 182 181 179
3 65 234 151
3 81 214 144
3 140 144 146
3 140 81 144
3 53 41 146
3 144 53 146
3 31 28 259
3 263 56 44
3 56 263 260
3 256 1 24
3 106 256 250
3 236 235 27
3 31 236 27
3 236 31 259
3 235 30 27
3 14 2 163
3 86 153 163
3 2 86 163
3 254 256 106
3 1 254 0
3 256 254 1
3 173 6 17
3 173 172 169
3 172 173 17
3 173 171 6
3 88 173 169
3 171 173 88
3 172 89 169
3 89 172 174
3 87 153 152
3 161 15 3
3 4 15 162
3 15 161 162
3 160 166 174
3 166 89 174
3 12 245 13
3 22 118 11
3 119 118 22
3 10 119 22
3 181 91 179
3 91 181 184
3 39 132 51
3 93 188 191
3 188 93 189
3 181 137 184
3 137 69 184
3 137 138 69
3 126 127 129
3 137 127 138
3 133 38 49
3 188 192 191
3 37 204 49
3 204 133 49
3 9 20 189
3 90 192 188
3 232 65 253
3 232 234 65
3 234 232 233
3 232 102 233
3 206 55 212
3 141 149 82
3 156 215 70
3 98 206 212
3 42 214 54
3 214 42 144
3 42 53 144
3 32 257 28
3 28 257 259
3 257 258 259
3 33 56 260
3 29 256 24
3 29 26 250
3 256 29 250
3 258 103 259
3 103 236 259
3 239 103 258
3 30 251 26
3 26 251 250
3 251 30 235
3 102 251 235
3 86 155 153
3 153 155 152
3 154 65 151
3 155 154 151
3 154 155 86
3 249 106 250
3 251 249 250
3 249 251 102
3 232 249 102
3 106 249 253
3 249 232 253
3 236 238 235
3 238 102 235
3 103 238 236
3 102 238 233
3 255 2 0
3 254 255 0
3 255 86 2
3 255 154 86
3 87 164 153
3 14 164 3
3 153 164 14
3 164 161 3
3 164 87 161
3 156 159 152
3 159 87 152
3 159 156 70
3 157 159 70
3 85 160 162
3 85 166 160
3 140 143 81
3 143 141 82
3 141 143 140
3 241 245 105
3 247 23 11
3 118 247 11
3 245 63 13
3 63 241 59
3 241 63 245
3 23 244 12
3 244 245 12
3 245 244 105
3 247 244 23
3 223 61 58
3 62 221 58
3 221 223 58
3 219 34 45
3 34 219 271
3 217 223 101
3 218 217 101
3 61 217 57
3 217 61 223
3 270 268 271
3 46 268 35
3 46 34 271
3 268 46 271
3 47 195 36
3 68 194 193
3 194 191 193
3 194 93 191
3 93 194 186
3 76 116 120
3 124 76 120
3 76 124 111
3 93 185 189
3 9 185 21
3 185 9 189
3 185 93 186
3 119 121 118
3 116 121 120
3 121 74 120
3 74 121 119
3 7 175 19
3 77 126 129
3 79 128 129
3 127 79 129
3 79 182 128
3 79 181 182
3 79 137 181
3 79 127 137
3 203 136 78
3 138 136 69
3 136 134 78
3 134 136 138
3 136 190 69
3 190 136 203
3 133 202 78
3 204 202 133
3 202 203 78
3 203 202 200
3 36 198 48
3 195 198 36
3 202 95 200
3 95 202 204
3 200 201 193
3 201 68 193
3 95 201 200
3 201 95 196
3 201 199 68
3 199 201 196
3 177 20 8
3 20 177 189
3 177 188 189
3 177 90 188
3 176 91 184
3 176 175 91
3 69 183 184
3 183 176 184
3 176 183 90
3 90 183 192
3 190 183 69
3 183 190 192
3 234 229 151
3 55 43 212
3 96 263 44
3 52 145 41
3 41 145 146
3 170 149 71
3 168 170 71
3 170 168 169
3 89 170 169
3 149 150 71
3 150 149 141
3 149 165 82
3 166 165 89
3 165 170 89
3 170 165 149
3 209 96 206
3 231 215 156
3 231 229 230
3 214 211 54
3 211 43 54
3 211 98 212
3 43 211 212
3 215 216 70
3 257 107 258
3 261 32 25
3 33 261 25
3 261 257 32
3 261 107 257
3 261 33 260
3 107 261 260
3 104 234 233
3 104 229 234
3 229 104 230
3 237 103 239
3 237 104 233
3 238 237 233
3 237 238 103
3 252 255 254
3 252 106 253
3 252 254 106
3 255 252 154
3 65 252 253
3 154 252 65
3 87 158 161
3 159 158 87
3 161 158 162
3 158 159 157
3 158 85 162
3 85 158 157
3 139 157 70
3 216 139 70
3 85 167 166
3 167 143 82
3 165 167 82
3 167 165 166
3 73 247 118
3 73 121 116
3 121 73 118
3 248 242 105
3 242 241 105
3 223 222 101
3 221 222 223
3 60 219 45
3 219 100 271
3 100 270 271
3 217 220 57
3 220 60 57
3 60 220 219
3 220 100 219
3 220 217 218
3 100 220 218
3 268 269 35
3 269 47 35
3 269 265 195
3 47 269 195
3 222 225 101
3 225 222 226
3 225 226 72
3 108 269 268
3 269 108 265
3 270 108 268
3 76 117 116
3 74 122 120
3 122 124 120
3 122 194 68
3 194 122 186
3 122 74 186
3 123 199 267
3 199 123 68
3 123 122 68
3 122 123 124
3 187 10 21
3 185 187 21
3 187 185 186
3 187 119 10
3 74 187 186
3 187 74 119
3 180 175 7
3 180 171 179
3 91 180 179
3 175 180 91
3 180 7 18
3 171 180 18
3 77 125 147
3 150 125 71
3 125 150 147
3 125 77 129
3 125 128 71
3 128 125 129
3 38 135 50
3 133 135 38
3 135 133 78
3 134 135 78
3 127 80 138
3 80 134 138
3 80 126 132
3 80 127 126
3 192 92 191
3 190 92 192
3 191 92 193
3 92 200 193
3 92 203 200
3 92 190 203
3 197 198 196
3 95 197 196
3 198 197 48
3 197 95 204
3 197 37 48
3 197 204 37
3 198 94 196
3 94 199 196
3 94 198 195
3 199 94 267
3 94 265 267
3 265 94 195
3 177 178 90
3 178 176 90
3 178 177 8
3 176 178 175
3 19 178 8
3 175 178 19
3 55 210 44
3 210 96 44
3 206 210 55
3 96 210 206
3 40 148 52
3 145 148 147
3 148 145 52
3 148 77 147
3 145 83 146
3 83 140 146
3 83 141 140
3 83 150 141
3 83 145 147
3 150 83 147
3 207 216 215
3 216 207 98
3 98 207 206
3 207 209 206
3 97 230 208
3 97 231 230
3 209 97 208
3 207 97 209
3 231 97 215
3 97 207 215
3 84 156 152
3 84 231 156
3 155 84 152
3 84 155 151
3 229 84 151
3 231 84 229
3 211 213 98
3 213 216 98
3 213 211 214
3 213 139 216
3 81 213 214
3 139 213 81
3 263 262 260
3 262 107 260
3 142 85 157
3 142 167 85
3 167 142 143
3 139 142 157
3 143 142 81
3 142 139 81
3 73 246 247
3 246 244 247
3 246 248 105
3 244 246 105
3 242 243 241
3 243 221 62
3 243 62 59
3 241 243 59
3 224 64 226
3 64 224 248
3 224 242 248
3 227 100 218
3 100 227 270
3 109 225 72
3 272 108 270
3 272 227 66
3 227 272 270
3 117 114 64
3 226 114 72
3 64 114 226
3 110 76 111
3 110 117 76
3 110 109 72
3 114 110 72
3 110 114 117
3 124 75 111
3 123 75 124
3 75 123 267
3 131 135 134
3 80 131 134
3 135 131 50
3 131 80 132
3 131 39 50
3 39 131 132
3 67 205 208
3 205 209 208
3 209 205 96
3 262 205 67
3 96 205 263
3 205 262 263
3 67 240 239
3 240 237 239
3 237 240 104
3 104 240 230
3 230 240 208
3 240 67 208
3 130 40 51
3 130 148 40
3 148 130 77
3 132 130 51
3 126 130 132
3 77 130 126
3 262 264 107
3 264 239 258
3 107 264 258
3 264 67 239
3 264 262 67
3 246 115 248
3 115 64 248
3 115 117 64
3 115 246 73
3 115 73 116
3 117 115 116
3 243 99 221
3 99 222 221
3 99 243 242
3 224 99 242
3 222 99 226
3 99 224 226
3 227 228 66
3 228 109 66
3 109 228 225
3 225 228 101
3 228 218 101
3 228 227 218
3 113 110 111
3 109 113 66
3 110 113 109
3 265 266 267
3 266 75 267
3 108 266 265
3 272 266 108
3 266 112 75
3 75 112 111
3 112 113 111
3 113 112 66
3 112 272 66
3 112 266 272

POINT_DATA 273

SCALARS Velocity_Y float 1

LOOKUP_TABLE Velocity_Y
0.0
0.0
0.0
0.0
0.0
0.0
0.0
0.0
0.0
0.0
0.0
0.0
0.0
0.0
0.0
0.0
0.0
0.0
0.0
0.0
0.0
0.0
0.0
0.0
0.0
0.0
-0.2917928014680236
-0.004197029544313107
0.282501762849918
-0.4256586379025005
-0.16245225452613182
0.15182075515786572
0.41937849391970117
0.0
0.0
0.0
0.0
0.0
0.0
0.0
0.0
0.0
0.0
0.0
0.0
0.0
0.0
0.0
0.0
0.0
0.0
0.0
0.0
0.0
0.0
0.0
0.0
0.0
0.0
0.0
0.0
0.0
0.0
0.0
0.09940141530669572
-0.0826344936894556
-0.0863671615501988
0.07328766068055385
-0.0035566978100978817
-0.009801153984551983
0.006692014247190621
-0.0004388044700148356
-0.0002985942865420336
0.045159469604934104
-0.029125108761345272
0.035686819395004364
0.04489970636803556
0.00386821724582744
-0.00024038286326111857
-0.0035989223601667073
0.002270787144107626
0.02252883640623626
-0.0002761303279101298
0.006101800353168791
0.022257121109919547
-0.019252859558546786
-0.03645804684077849
0.05097507097929714
-0.004002631195304257
-0.006025428172874245
-0.007448955215819173
-0.005599666228842952
-0.026226965118436477
-0.02039402001136966
0.016695908911526332
-0.003649506389069086
0.03197152652495681
-0.013862296189650543
-0.04667878817701225
0.10058878758086168
-0.29840596682054293
-0.1393804218059621
-0.07333001026341834
0.05692515151283124
-0.0044512527465987075
0.2839127523157656
-0.0937115447147188
0.0866439175147605
-0.02396210193247076
-0.049010193825204613
0.01667794221267224
0.04034713192329701
-0.019912848385625292
-0.013042044208101263
0.013783417988309437
0.10167209937246617
0.045793016754857016
0.041512342845876765
-0.005969390944969615
-0.02729534832478987
0.05769452130601639
0.018557121824746788
-0.011134974922118169
0.047853312282943344
0.06542836104938446
0.002402827809027059
0.007162054824497394
0.0006298349942531934
-0.002814789310748972
0.0029152973408770513
0.0033410017656389304
0.0012477305113612
0.004418742650108085
0.002425758722023219
0.00044813478033422946
-0.0007831905796330345
-0.006111523833070451
-0.00488733158962942
-0.0007751804211829868
-0.02924369617081922
0.010810099223245004
0.011414475159301208
0.0019282698699616
0.04178157734001062
0.009642479762693109
0.0013926991692354716
-0.001461286123905901
0.002042390451800694
-0.0007579701567456381
-4.676941655710273e-05
0.0028769497710184355
-0.023161160493566278
0.05594822229082103
0.039663978953617444
-0.07796586667300093
0.010406056080990888
0.03156873676496767
0.036731678432172725
0.014751049122274191
0.050721341298189115
-0.008823381607170897
0.007333057967314862
0.0035693340608704723
0.05269084171507344
-0.04442759076621353
-0.011460272060283794
-0.009883803150682026
-0.041487676005468495
-0.0034542529631740953
-0.001787789435904425
-0.0026411242847937887
-0.0029179941975258712
-0.0013738199305973623
0.0007134863256762714
0.0016823973807321142
-0.0016948718029952377
-0.00454789614228432
-0.001870289815023745
-0.0006203274206501076
-0.009448203358128899
-0.004589719103088387
-0.006832924710587988
-0.00767968441872906
-0.012544879199176365
-0.006898432898182964
-0.005885903411429437
-0.027010356742272226
-0.0071115994435626455
-0.016660469070574835
-0.005123688221307693
-0.023697169621180757
-0.02958169736464596
-0.024385117683640385
-0.020189415300749077
-0.034197011142993484
0.008891375347546042
0.0023360807335700198
0.0010830581104031964
0.001732687170386526
0.016980889043149077
-0.015548542635873743
-0.005330074939007466
-0.002707928988877125
-0.014886111629686253
0.0020019482719712163
0.07043196726505069
-0.039688682907267556
-0.04919376446853228
0.02493068219943004
-0.009584262603334753
-0.056377755821620745
-0.006600874755189889
0.044197574613424814
-0.0102040409866955
-0.0026223927223782547
-0.01844988341502196
-0.0416132679164491
-0.14275805017499488
-0.2582061612826555
-0.22546423126950613
-0.25714707409222787
0.02842361179175982
-0.017935210072023144
-0.047724949494000884
0.14243690584325155
-0.06346945382194583
0.032923459913903594
-0.1886105385303761
-0.13917857840001074
-0.014533946163425744
0.01546545162807351
0.004613750212890009
-0.06634497510039285
-0.03259858908010322
-0.05176054562112792
-0.07513650647560978
0.06146947115899758
0.016595990947360438
-0.008914458469099868
0.05127382032120501
0.04365114952320397
0.24040871105587197
0.24608801163814223
0.14340728085997703
0.1442940621822405
0.21322292819537075
0.13682847084111
0.033524360512091955
0.19652592732249904
-0.11312064737281462
-0.2727905042826177
-0.20242775196068055
-0.019542736533700054
-0.04849503602057812
-0.045185942059923837
0.034606861472342196
-0.1844223478709111
0.2640310603312007
0.10030772302219244
0.1897888615865108
0.0443700087664234
0.18171498905930847
0.016679282124293583
-0.033206942999470725
0.04056925608348309
0.01826110087290517
-0.008160978513317253
0.030963469271005406
-0.013938849579150994
0.00964415582614423
-0.12311164223677126
-0.1358125664178564
-0.08602527831569928

SCALARS Velocity_X float 1

LOOKUP_TABLE Velocity_X
0.0
0.0
0.0
0.0
0.0
0.0
0.0
0.0
0.0
0.0
0.0
0.0
0.0
1.0
0.0
0.0
0.0
0.0
0.0
0.0
0.0
0.0
0.0
0.0
0.0
0.0
0.983418958531244
0.9899040876152354
0.9832021988082881
1.0964352794959897
0.9988321290753274
0.9985541226149405
1.0964730436991412
0.0
0.0
0.0
0.0
0.0
0.0
0.0
0.0
0.0
0.0
0.0
0.0
1.0
0.0
0.0
0.0
0.0
0.0
0.0
0.0
0.0
0.0
0.0
0.0
1.0
1.0
1.0
1.0
1.0
1.0
1.0
1.3959922205496318
1.271452054403931
1.4997355601761395
1.2854833392815954
1.6382028416624927
1.5796530420549824
1.4887997623686144
1.549138824124241
1.4571243923323423
0.9291857972750206
1.1282464061107507
1.590819254759386
1.5250826697298034
1.1376989959006492
1.1295862510871273
1.5645612769400425
1.1352589363116974
1.231926902586872
1.4993422869273343
1.1447541257238747
1.4912721769113286
1.2263418797672117
0.6090950264652386
0.9462929477463959
1.1294726977819767
1.1380590010832108
1.1232959055886969
1.1309947990271865
1.5929948817388673
1.1310641605202212
1.066834140058099
1.1142702932902184
0.611996032344243
1.501704741791755
0.9570647933282616
1.171670746588259
1.1404385350204778
1.1975753723606652
1.3382768663531874
1.345707393296584
1.517697300733224
1.1156868788256096
1.0784435432440143
1.0890537392513409
1.0034422175203837
1.4931257297664517
1.5442261969560533
1.6018488337280956
1.551447930494496
1.5707471367660168
1.5084108966553076
1.298311647892202
1.2949124308282665
1.4723750561722928
0.36170736357479744
0.4843118631691792
1.3805308286179685
0.943347444420451
1.5357545283103085
1.630879356536191
1.600652085888
1.4555867012489583
1.1377727383977678
1.4682456077325106
1.5558868646080855
1.4622288773410692
0.5496066233662923
0.5344319525092387
0.5406110878621881
0.527232364432574
1.132058219811275
0.5314365881946592
1.47492712737945
1.5714262759335125
1.471645990751133
1.421550660262168
1.1643988693590015
1.4521095111311642
1.4446337518189678
1.4493755991542936
0.5758841072320223
0.5575218993145141
0.5643980607151521
1.1417084963799202
0.5553524058289975
1.5396528364994264
1.453389888542422
1.4080454929138129
1.2935572847131651
0.6863834634553604
1.0362878226633239
1.199717099681017
1.5225462892121058
1.4184360168571417
1.0800186713165287
1.3572944996055933
0.5707437614215016
0.4795278405393732
0.541378670279712
0.2533131046343053
0.38318276879231017
1.4479469720030012
1.158418286794117
1.4479246481109498
1.4492003554863684
1.1342190377679662
1.4481620116518614
0.5454010206985581
0.5534823130184561
0.5509143842470012
0.5606069561749073
0.533949675039695
1.127910570791192
0.5274427219970359
0.5307738829951699
1.1321596062473216
0.5390353893040698
1.4639573831186354
1.4572470562422877
1.4676523889815816
1.4671567429404213
0.521307690090714
1.12741543007041
0.5161679049808255
1.1296918812091667
0.5273528247852551
1.5857270750431383
1.4860053289632207
1.4767172769004204
1.6052738294128455
1.4992203053575432
0.4691327745374716
1.0993816453261802
0.5060485770743951
0.4936009457653051
1.470453601742637
1.4800038710438082
1.4815289199040655
1.121915736350871
1.4755790185665199
0.5152206888421011
1.0437481398388242
0.6957226398132781
1.304296235508686
1.4204837696424266
1.211716387893102
0.2515708969534351
0.48592251030120615
0.3907592735159827
1.088337481684259
0.5471418044572739
1.5284666534670808
1.3647577489135674
1.084915531938289
1.2397308564965377
0.8729968068370288
1.0941396082051744
1.0518901858972718
1.1634113121349965
1.0485363460012016
1.3020891273343245
1.3396986220900216
1.3486345961326005
1.3492116029590266
1.3727103318392695
1.5643228590357783
1.5688227583731444
1.598256454145172
1.3580067308906512
1.4286281990923915
1.462055508328851
1.2061697692898272
1.207424850247716
1.4335043231645703
1.3606157147871056
1.3716876950516086
1.4698336499162417
1.0841125932928366
1.1811400478876766
1.0798650101324867
0.6118581171009079
0.9130495870698824
1.033096965743994
0.42857568253304495
1.2605296157476302
1.2588582789330214
1.113133082952182
1.1880623942406043
0.9048804155208353
1.1802642843464644
0.47910094414204296
0.3628872599469062
0.7982530626228557
1.11955764897369
1.2702202315994522
1.1927422049959593
0.4834289083394574
0.8032442033230771
0.9131323891822076
0.36230726722171547
1.1943648497654604
1.0200415983328721
1.3908927904489847
1.4295707971320075
0.4369565312524661
0.4366073927878434
1.0633725820681363
0.5553404136962177
1.3804739746570402
