# vtk DataFile Version 3.0
LucasCarvalhoTCC Results
ASCII

DATASET POLYDATA

POINTS 113 float
0.0 0.0 0.0
1.0 0.0 0.0
1.0 1.0 0.0
-0.0 1.0 0.0
0.1249999999997796 0.0 0.0
0.2499999999994197 0.0 0.0
0.3749999999990572 0.0 0.0
0.4999999999986947 0.0 0.0
0.624999999999021 0.0 0.0
0.7499999999993473 0.0 0.0
0.8749999999996736 0.0 0.0
1.0 0.1249999999997796 0.0
1.0 0.2499999999994197 0.0
1.0 0.3749999999990572 0.0
1.0 0.4999999999986947 0.0
1.0 0.624999999999021 0.0
1.0 0.7499999999993473 0.0
1.0 0.8749999999996736 0.0
0.8750000000005342 1.0 0.0
0.7500000000009752 1.0 0.0
0.625000000001438 1.0 0.0
0.5000000000020588 1.0 0.0
0.3750000000015441 1.0 0.0
0.2500000000010294 1.0 0.0
0.1250000000005147 1.0 0.0
0.0 0.8750000000005342 0.0
0.0 0.7500000000009752 0.0
0.0 0.625000000001438 0.0
0.0 0.5000000000020588 0.0
0.0 0.3750000000015441 0.0
0.0 0.2500000000010294 0.0
0.0 0.1250000000005147 0.0
0.5647364308662526 0.446732401698651 0.0
0.2354892605327166 0.5800652382235557 0.0
0.287250702605353 0.3933735249345629 0.0
0.1177446302663583 0.5400326191128073 0.0
0.1436253513026765 0.1966867624672815 0.0
0.2613699815690348 0.4867193815790593 0.0
0.1306849907845174 0.3683596907900444 0.0
0.4259935667358028 0.420052963316607 0.0
0.5323682154341557 0.7233662008493256 0.0
0.3677446302673877 0.7900326191117779 0.0
0.3968690985015952 0.6050427912141925 0.0
0.5323682154324736 0.2233662008493255 0.0
0.3379967833676113 0.2100264816583035 0.0
0.1838723151336938 0.7700163095563766 0.0
0.7823682154331263 0.4733662008486729 0.0
0.7661841077170508 0.7366831004243365 0.0
0.7661841077162368 0.2366831004243726 0.0
0.1766169453995375 0.5600489286681816 0.0
0.1242148105254379 0.4541961549514258 0.0
0.1960274861767761 0.4275395361845519 0.0
0.2484296210508757 0.5333923099013075 0.0
0.1863222157881568 0.4937942324263667 0.0
0.05887231513317916 0.520016309557433 0.0
0.0653424953922587 0.3091798453955369 0.0
0.06210740526271893 0.414598077476485 0.0
0.07181267565133825 0.09834338123364073 0.0
0.137155171043597 0.2825232266286629 0.0
0.06857758552179848 0.2037616133145888 0.0
0.2154380269540148 0.2950301437009222 0.0
0.2743103420871939 0.4400464532568111 0.0
0.2057327565653954 0.361284839942737 0.0
0.3566221346705779 0.406713244125585 0.0
0.411431332618699 0.5125478772653997 0.0
0.329119540035315 0.5458810863966259 0.0
0.3428708373529465 0.4762971652611054 0.0
0.4953649988010277 0.433392682507629 0.0
0.5485523231502041 0.5850493012739884 0.0
0.4646186569678755 0.664204496031759 0.0
0.4799918278844515 0.548798589269694 0.0
0.5161841077181073 0.8616831004246628 0.0
0.4338723151347232 0.895016309555889 0.0
0.3823068643844915 0.6975377051629852 0.0
0.4492454860512994 0.779610402793824 0.0
0.3016169454000521 0.6850489286676669 0.0
0.3153682427176835 0.6154650075321464 0.0
0.381995175051707 0.3150397224874552 0.0
0.4351824994000424 0.2166963412538145 0.0
0.5485523231493631 0.3350493012739882 0.0
0.465273749100535 0.3250445118807217 0.0
0.2408110673351439 0.2033566220627925 0.0
0.2987166010028609 0.3050349330941887 0.0
0.2939983916835155 0.1050132408291517 0.0
0.1829055336674617 0.1016783110313962 0.0
0.5161841077155841 0.1116831004246628 0.0
0.4050912496995498 0.1083481706269072 0.0
0.2169361575673616 0.8850081547781883 0.0
0.2758084727005408 0.7800244643340772 0.0
0.3254042363510424 0.8900122321670386 0.0
0.09193615756684692 0.7600081547786759 0.0
0.1084680787836808 0.8800040773893613 0.0
0.1508084727000261 0.6550244643345919 0.0
0.07540423635001303 0.640012232168015 0.0
0.2262127090500391 0.6700366965011294 0.0
0.6492761615756033 0.7300246506368311 0.0
0.758092053859013 0.8683415502121683 0.0
0.6371380807885206 0.8650123253184155 0.0
0.6735523231496894 0.4600493012736619 0.0
0.7742761615750886 0.6050246506365047 0.0
0.6614142423626463 0.5950369759552465 0.0
0.8911841077165632 0.4866831004236838 0.0
0.8830920538585254 0.7433415502118419 0.0
0.8871380807875443 0.6150123253177628 0.0
0.8790460269295298 0.871670775105921 0.0
0.6492761615743552 0.2300246506368491 0.0
0.7742761615746816 0.3550246506365228 0.0
0.6614142423620224 0.3450369759552555 0.0
0.758092053857792 0.1183415502121863 0.0
0.637138080786688 0.1150123253184245 0.0
0.8830920538581184 0.2433415502118962 0.0
0.879046026928896 0.1216707751059829 0.0
0.8871380807873408 0.36501232531779 0.0

POLYGONS 192 768
3 103 101 14
3 101 103 99
3 91 24 3
3 25 91 3
3 90 25 26
3 25 90 91
3 15 103 14
3 104 17 2
3 17 104 16
3 18 104 2
3 104 102 16
3 102 15 16
3 15 102 103
3 96 18 19
3 18 96 104
3 67 32 70
3 64 67 70
3 63 34 82
3 77 63 82
3 46 101 99
3 100 46 99
3 46 100 98
3 90 45 91
3 45 90 92
3 68 100 95
3 40 68 95
3 32 68 70
3 100 68 98
3 68 32 98
3 71 20 21
3 93 35 92
3 90 93 92
3 27 93 26
3 93 90 26
3 6 83 5
3 47 102 104
3 96 47 104
3 47 96 95
3 47 100 99
3 100 47 95
3 103 47 99
3 102 47 103
3 44 77 82
3 8 85 7
3 77 39 63
3 64 39 67
3 101 13 14
3 73 74 41
3 71 74 40
3 73 75 76
3 75 73 41
3 68 69 70
3 69 68 40
3 74 69 40
3 69 74 73
3 71 97 20
3 20 97 19
3 97 96 19
3 96 97 95
3 97 40 95
3 97 71 40
3 35 49 92
3 49 33 92
3 66 39 64
3 39 66 63
3 57 31 0
3 4 57 0
3 39 80 67
3 80 39 77
3 86 6 7
3 85 86 7
3 6 86 83
3 86 44 83
3 46 112 101
3 112 13 101
3 13 112 12
3 109 85 8
3 9 109 8
3 109 9 108
3 89 22 23
3 87 89 23
3 87 23 24
3 87 24 91
3 45 87 91
3 88 75 41
3 88 87 45
3 89 88 41
3 87 88 89
3 94 33 76
3 75 94 76
3 33 94 92
3 94 45 92
3 94 88 45
3 88 94 75
3 42 64 70
3 69 42 70
3 42 73 76
3 42 69 73
3 55 29 30
3 54 50 35
3 54 27 28
3 54 93 27
3 93 54 35
3 29 56 28
3 56 54 28
3 54 56 50
3 50 56 38
3 56 55 38
3 55 56 29
3 34 62 82
3 62 60 82
3 44 81 83
3 81 44 82
3 60 81 82
3 50 53 35
3 53 49 35
3 33 65 76
3 65 66 64
3 65 42 76
3 42 65 64
3 84 4 5
3 83 84 5
3 4 84 57
3 81 84 83
3 78 86 85
3 86 78 44
3 44 78 77
3 78 80 77
3 106 46 98
3 106 112 46
3 11 111 1
3 111 10 1
3 9 10 108
3 10 111 108
3 112 110 12
3 110 11 12
3 11 110 111
3 106 110 112
3 109 43 85
3 43 78 85
3 78 43 80
3 22 72 21
3 72 71 21
3 72 22 89
3 72 74 71
3 72 89 41
3 74 72 41
3 59 55 30
3 31 59 30
3 59 31 57
3 51 53 50
3 51 50 38
3 62 51 38
3 51 62 34
3 49 52 33
3 53 52 49
3 52 65 33
3 48 110 106
3 111 48 108
3 110 48 111
3 107 106 98
3 32 107 98
3 107 48 106
3 59 58 55
3 55 58 38
3 58 62 38
3 62 58 60
3 65 37 66
3 52 37 65
3 51 37 53
3 37 52 53
3 79 107 32
3 79 32 67
3 80 79 67
3 43 79 80
3 107 105 48
3 105 109 108
3 48 105 108
3 105 43 109
3 105 79 43
3 79 105 107
3 36 58 59
3 36 84 81
3 36 81 60
3 58 36 60
3 84 36 57
3 36 59 57
3 37 61 66
3 63 61 34
3 66 61 63
3 61 51 34
3 61 37 51

POINT_DATA 113

SCALARS Temperature float 1

LOOKUP_TABLE Temperature
0.0001343442537293207
0.003162341375813104
0.14955235897927863
0.00281861766040776
0.0005323200778886722
0.00105108029637741
0.0016030151277095046
0.002120795600057699
0.0026396172145647006
0.0029508419707952116
0.0032301669862135167
0.038298953553645
0.06916545033216093
0.09513019343704773
0.11550959166207837
0.12991631478955837
0.1393208447191181
0.14523841815175137
0.14617075564241777
0.1402190718564283
0.13096359104184913
0.11597050980557291
0.09483063682314863
0.06844833766417084
0.03751949325533615
0.00221444250309775
0.0014543610889290466
0.0008779116428948072
0.0005585178009721442
0.0005175306391842358
0.00042479466602605195
0.0002820995952393701
0.12869733622926313
0.06004886216133045
0.061436721300117944
0.028863458426209077
0.015315055884655798
0.06369665909857912
0.025150264744983653
0.10666221469928354
0.12395419509660298
0.0913812226515651
0.10766844576685902
0.057525775151632305
0.03858469652123361
0.048211229744760664
0.1116099568467685
0.13249002410696484
0.06261086966985796
0.04407430485919331
0.02784568066373742
0.042769769565708764
0.06246426389185211
0.04426753466969124
0.014391052653087398
0.011005850292091345
0.013263926982483715
0.004016805688807493
0.020856081408660368
0.0078075557108940735
0.03423247659192467
0.06344745434650154
0.0393446683460006
0.08242549350571378
0.1168500519929059
0.0876257753026621
0.08874028756536552
0.12302670913280302
0.14147758303028013
0.11924091085843734
0.1348874107406402
0.11657122940913742
0.10381147707518845
0.09770608304389483
0.10769034693452234
0.07783975634965397
0.08290292441330688
0.06768241204490535
0.04963816707766089
0.0924092914166523
0.08346690639457251
0.026703335702983895
0.05001051207700727
0.0171916409226264
0.010486056467508355
0.02835311444507576
0.02349642120795243
0.058233622066398164
0.07063676933543513
0.08282011099287463
0.024980961925770782
0.03092150486768061
0.038902222788770535
0.019738259513319017
0.058379106035685635
0.1309643688025587
0.13672791667457743
0.12932026668493124
0.11870012912185048
0.12613819600462062
0.1316551101033127
0.11195538067585001
0.13584509479678455
0.12676170819289778
0.1422403160616708
0.061303623605377305
0.08998441645930352
0.09270613659830854
0.03305333309041987
0.03134624869641807
0.06530483237305122
0.03526884617094702
0.09137588222844889
